 TITLE = "VectorSurfaceData"
VARIABLES = "x" "y" "z"
  "FullConvective"
  "FourierOnly"
  "Radiant"
  "Balance"
 ZONE T=Bnd4 DATAPACKING=Block
 N=356
 E=264
 ZONETYPE=FEQUADRILATERAL
 VarLocation=([4-7]=CellCentered)
 -0.1000000E+01
 -0.9994853E+00
 -0.1000000E+01
 -0.9994834E+00
 -0.1000000E+01
 -0.9994834E+00
 -0.1000000E+01
 -0.9994860E+00
 -0.9979451E+00
 -0.9979414E+00
 -0.9979414E+00
 -0.9979452E+00
 -0.9953786E+00
 -0.9953778E+00
 -0.9953778E+00
 -0.9953790E+00
 -0.9917892E+00
 -0.9917862E+00
 -0.9917862E+00
 -0.9917896E+00
 -0.9871809E+00
 -0.9871798E+00
 -0.9871798E+00
 -0.9871815E+00
 -0.9815586E+00
 -0.9815550E+00
 -0.9815550E+00
 -0.9815591E+00
 -0.9749277E+00
 -0.9749275E+00
 -0.9749275E+00
 -0.9749278E+00
 -0.9672939E+00
 -0.9672911E+00
 -0.9672911E+00
 -0.9672946E+00
 -0.9586671E+00
 -0.9586636E+00
 -0.9586636E+00
 -0.9586675E+00
 -0.9490548E+00
 -0.9490536E+00
 -0.9490536E+00
 -0.9490556E+00
 -0.9384679E+00
 -0.9384673E+00
 -0.9384673E+00
 -0.9384682E+00
 -0.9269156E+00
 -0.9269134E+00
 -0.9269134E+00
 -0.9269164E+00
 -0.9144118E+00
 -0.9144084E+00
 -0.9144084E+00
 -0.9144123E+00
 -0.9009688E+00
 -0.9009644E+00
 -0.9009644E+00
 -0.9009686E+00
 -0.8865987E+00
 -0.8865950E+00
 -0.8865950E+00
 -0.8865986E+00
 -0.8713178E+00
 -0.8713146E+00
 -0.8713147E+00
 -0.8713185E+00
 -0.8551418E+00
 -0.8551390E+00
 -0.8551390E+00
 -0.8551422E+00
 -0.8380879E+00
 -0.8380844E+00
 -0.8380844E+00
 -0.8380877E+00
 -0.8201720E+00
 -0.8201686E+00
 -0.8201686E+00
 -0.8201717E+00
 -0.8014134E+00
 -0.8014100E+00
 -0.8014100E+00
 -0.8014132E+00
 -0.7818312E+00
 -0.7818277E+00
 -0.7818277E+00
 -0.7818308E+00
 -0.7614457E+00
 -0.7614422E+00
 -0.7614422E+00
 -0.7614459E+00
 -0.7402778E+00
 -0.7402742E+00
 -0.7402742E+00
 -0.7402774E+00
 -0.7183493E+00
 -0.7183456E+00
 -0.7183456E+00
 -0.7183490E+00
 -0.6956825E+00
 -0.6956789E+00
 -0.6956789E+00
 -0.6956822E+00
 -0.6723008E+00
 -0.6722974E+00
 -0.6722974E+00
 -0.6723003E+00
 -0.6482282E+00
 -0.6482252E+00
 -0.6482252E+00
 -0.6482283E+00
 -0.6234896E+00
 -0.6234869E+00
 -0.6234868E+00
 -0.6234893E+00
 -0.5981104E+00
 -0.5981078E+00
 -0.5981078E+00
 -0.5981102E+00
 -0.5721166E+00
 -0.5721142E+00
 -0.5721142E+00
 -0.5721163E+00
 -0.5455348E+00
 -0.5455325E+00
 -0.5455325E+00
 -0.5455346E+00
 -0.5183920E+00
 -0.5183903E+00
 -0.5183902E+00
 -0.5183921E+00
 -0.4907171E+00
 -0.4907153E+00
 -0.4907153E+00
 -0.4907174E+00
 -0.4625380E+00
 -0.4625360E+00
 -0.4625360E+00
 -0.4625379E+00
 -0.4338838E+00
 -0.4338816E+00
 -0.4338816E+00
 -0.4338835E+00
 -0.4047830E+00
 -0.4047815E+00
 -0.4047815E+00
 -0.4047831E+00
 -0.3752666E+00
 -0.3752657E+00
 -0.3752656E+00
 -0.3752668E+00
 -0.3453649E+00
 -0.3453646E+00
 -0.3453646E+00
 -0.3453649E+00
 -0.3151079E+00
 -0.3151075E+00
 -0.3151075E+00
 -0.3151081E+00
 -0.2845274E+00
 -0.2845263E+00
 -0.2845263E+00
 -0.2845274E+00
 -0.2536543E+00
 -0.2536536E+00
 -0.2536536E+00
 -0.2536544E+00
 -0.2225209E+00
 -0.2225208E+00
 -0.2225208E+00
 -0.2225209E+00
 -0.1911585E+00
 -0.1911578E+00
 -0.1911578E+00
 -0.1911586E+00
 -0.1595998E+00
 -0.1595996E+00
 -0.1595996E+00
 -0.1595998E+00
 -0.1278771E+00
 -0.1278767E+00
 -0.1278767E+00
 -0.1278771E+00
 -0.9602296E-01
 -0.9602289E-01
 -0.9602289E-01
 -0.9602299E-01
 -0.6407019E-01
 -0.6406996E-01
 -0.6406996E-01
 -0.6407019E-01
 -0.3205154E-01
 -0.3205148E-01
 -0.3205148E-01
 -0.3205156E-01
  0.0000000E+00
  0.0000000E+00
  0.8881784E-15
  0.0000000E+00
  0.2886150E-01
  0.2886150E-01
  0.2886150E-01
  0.2886150E-01
  0.6261033E-01
  0.6261033E-01
  0.6261033E-01
  0.6261033E-01
  0.1020712E+00
  0.1020712E+00
  0.1020712E+00
  0.1020712E+00
  0.1482067E+00
  0.1482067E+00
  0.1482067E+00
  0.1482067E+00
  0.2021406E+00
  0.2021406E+00
  0.2021406E+00
  0.2021406E+00
  0.2651834E+00
  0.2651834E+00
  0.2651834E+00
  0.2651834E+00
  0.3388632E+00
  0.3388632E+00
  0.3388632E+00
  0.3388632E+00
  0.4249609E+00
  0.4249609E+00
  0.4249609E+00
  0.4249609E+00
  0.5255501E+00
  0.5255501E+00
  0.5255501E+00
  0.5255501E+00
  0.6430441E+00
  0.6430441E+00
  0.6430441E+00
  0.6430441E+00
  0.7802481E+00
  0.7802481E+00
  0.7802481E+00
  0.7802481E+00
  0.9404202E+00
  0.9404202E+00
  0.9404202E+00
  0.9404202E+00
  0.1127339E+01
  0.1127339E+01
  0.1127339E+01
  0.1127339E+01
  0.1345381E+01
  0.1345381E+01
  0.1345381E+01
  0.1345381E+01
  0.1599607E+01
  0.1599607E+01
  0.1599607E+01
  0.1599607E+01
  0.1895853E+01
  0.1895853E+01
  0.1895853E+01
  0.1895853E+01
  0.2240842E+01
  0.2240842E+01
  0.2240842E+01
  0.2240842E+01
  0.2642286E+01
  0.2642286E+01
  0.2642286E+01
  0.2642286E+01
  0.3109011E+01
  0.3109011E+01
  0.3109011E+01
  0.3109011E+01
  0.3651075E+01
  0.3651075E+01
  0.3651075E+01
  0.3651075E+01
  0.4279886E+01
  0.4279886E+01
  0.4279886E+01
  0.4279886E+01
  0.5008316E+01
  0.5008316E+01
  0.5008316E+01
  0.5008316E+01
  0.5850793E+01
  0.5850793E+01
  0.5850793E+01
  0.5850793E+01
  0.6823364E+01
  0.6823364E+01
  0.6823364E+01
  0.6823364E+01
  0.7943715E+01
  0.7943715E+01
  0.7943715E+01
  0.7943715E+01
  0.9231117E+01
  0.9231117E+01
  0.9231117E+01
  0.9231117E+01
  0.1070629E+02
  0.1070629E+02
  0.1070629E+02
  0.1070629E+02
  0.1239113E+02
  0.1239113E+02
  0.1239113E+02
  0.1239113E+02
  0.1430832E+02
  0.1430832E+02
  0.1430832E+02
  0.1430832E+02
  0.1648070E+02
  0.1648070E+02
  0.1648070E+02
  0.1648070E+02
  0.1893051E+02
  0.1893051E+02
  0.1893051E+02
  0.1893051E+02
  0.2167831E+02
  0.2167831E+02
  0.2167831E+02
  0.2167831E+02
  0.2474178E+02
  0.2474178E+02
  0.2474178E+02
  0.2474178E+02
  0.2813426E+02
  0.2813426E+02
  0.2813426E+02
  0.2813426E+02
  0.3186315E+02
  0.3186315E+02
  0.3186315E+02
  0.3186315E+02
  0.3592838E+02
  0.3592838E+02
  0.3592838E+02
  0.3592838E+02
  0.4032088E+02
  0.4032088E+02
  0.4032088E+02
  0.4032088E+02
  0.4502143E+02
  0.4502143E+02
  0.4502143E+02
  0.4502143E+02
  0.5000000E+02
  0.5000000E+02
  0.5000000E+02
  0.5000000E+02
  0.0000000E+00
  0.3205154E-01
  0.0000000E+00
  0.3205148E-01
  0.0000000E+00
  0.3205148E-01
  0.0000000E+00
  0.3205156E-01
  0.6407019E-01
  0.6406996E-01
  0.6406996E-01
  0.6407019E-01
  0.9602296E-01
  0.9602289E-01
  0.9602289E-01
  0.9602299E-01
  0.1278771E+00
  0.1278767E+00
  0.1278767E+00
  0.1278771E+00
  0.1595998E+00
  0.1595996E+00
  0.1595996E+00
  0.1595998E+00
  0.1911585E+00
  0.1911578E+00
  0.1911578E+00
  0.1911586E+00
  0.2225209E+00
  0.2225208E+00
  0.2225208E+00
  0.2225209E+00
  0.2536543E+00
  0.2536536E+00
  0.2536536E+00
  0.2536544E+00
  0.2845274E+00
  0.2845263E+00
  0.2845263E+00
  0.2845274E+00
  0.3151079E+00
  0.3151075E+00
  0.3151075E+00
  0.3151081E+00
  0.3453649E+00
  0.3453646E+00
  0.3453646E+00
  0.3453649E+00
  0.3752666E+00
  0.3752657E+00
  0.3752656E+00
  0.3752668E+00
  0.4047830E+00
  0.4047815E+00
  0.4047815E+00
  0.4047831E+00
  0.4338838E+00
  0.4338816E+00
  0.4338816E+00
  0.4338835E+00
  0.4625380E+00
  0.4625360E+00
  0.4625360E+00
  0.4625379E+00
  0.4907171E+00
  0.4907153E+00
  0.4907153E+00
  0.4907174E+00
  0.5183920E+00
  0.5183903E+00
  0.5183902E+00
  0.5183921E+00
  0.5455348E+00
  0.5455325E+00
  0.5455325E+00
  0.5455346E+00
  0.5721166E+00
  0.5721142E+00
  0.5721142E+00
  0.5721163E+00
  0.5981104E+00
  0.5981078E+00
  0.5981078E+00
  0.5981102E+00
  0.6234896E+00
  0.6234869E+00
  0.6234868E+00
  0.6234893E+00
  0.6482282E+00
  0.6482252E+00
  0.6482252E+00
  0.6482283E+00
  0.6723008E+00
  0.6722974E+00
  0.6722974E+00
  0.6723003E+00
  0.6956825E+00
  0.6956789E+00
  0.6956789E+00
  0.6956822E+00
  0.7183493E+00
  0.7183456E+00
  0.7183456E+00
  0.7183490E+00
  0.7402778E+00
  0.7402742E+00
  0.7402742E+00
  0.7402774E+00
  0.7614457E+00
  0.7614422E+00
  0.7614422E+00
  0.7614459E+00
  0.7818312E+00
  0.7818277E+00
  0.7818277E+00
  0.7818308E+00
  0.8014134E+00
  0.8014100E+00
  0.8014100E+00
  0.8014132E+00
  0.8201720E+00
  0.8201686E+00
  0.8201686E+00
  0.8201717E+00
  0.8380879E+00
  0.8380844E+00
  0.8380844E+00
  0.8380877E+00
  0.8551418E+00
  0.8551390E+00
  0.8551390E+00
  0.8551422E+00
  0.8713178E+00
  0.8713146E+00
  0.8713147E+00
  0.8713185E+00
  0.8865987E+00
  0.8865950E+00
  0.8865950E+00
  0.8865986E+00
  0.9009688E+00
  0.9009644E+00
  0.9009644E+00
  0.9009686E+00
  0.9144118E+00
  0.9144084E+00
  0.9144084E+00
  0.9144123E+00
  0.9269156E+00
  0.9269134E+00
  0.9269134E+00
  0.9269164E+00
  0.9384679E+00
  0.9384673E+00
  0.9384673E+00
  0.9384682E+00
  0.9490548E+00
  0.9490536E+00
  0.9490536E+00
  0.9490556E+00
  0.9586671E+00
  0.9586636E+00
  0.9586636E+00
  0.9586675E+00
  0.9672939E+00
  0.9672911E+00
  0.9672911E+00
  0.9672946E+00
  0.9749277E+00
  0.9749275E+00
  0.9749275E+00
  0.9749278E+00
  0.9815586E+00
  0.9815550E+00
  0.9815550E+00
  0.9815591E+00
  0.9871809E+00
  0.9871798E+00
  0.9871798E+00
  0.9871815E+00
  0.9917892E+00
  0.9917862E+00
  0.9917862E+00
  0.9917896E+00
  0.9953786E+00
  0.9953778E+00
  0.9953778E+00
  0.9953790E+00
  0.9979451E+00
  0.9979414E+00
  0.9979414E+00
  0.9979452E+00
  0.9994853E+00
  0.9994834E+00
  0.9994834E+00
  0.9994860E+00
  0.1000000E+01
  0.1000000E+01
  0.1000000E+01
  0.1000000E+01
  0.1000000E+01
  0.1000000E+01
  0.1000000E+01
  0.1000000E+01
  0.1000000E+01
  0.1000000E+01
  0.1000000E+01
  0.1000000E+01
  0.1000000E+01
  0.1000000E+01
  0.1000000E+01
  0.1000000E+01
  0.1000000E+01
  0.1000000E+01
  0.1000000E+01
  0.1000000E+01
  0.1000000E+01
  0.1000000E+01
  0.1000000E+01
  0.1000000E+01
  0.1000000E+01
  0.1000000E+01
  0.1000000E+01
  0.1000000E+01
  0.1000000E+01
  0.1000000E+01
  0.1000000E+01
  0.1000000E+01
  0.1000000E+01
  0.1000000E+01
  0.1000000E+01
  0.1000000E+01
  0.1000000E+01
  0.1000000E+01
  0.1000000E+01
  0.1000000E+01
  0.1000000E+01
  0.1000000E+01
  0.1000000E+01
  0.1000000E+01
  0.1000000E+01
  0.1000000E+01
  0.1000000E+01
  0.1000000E+01
  0.1000000E+01
  0.1000000E+01
  0.1000000E+01
  0.1000000E+01
  0.1000000E+01
  0.1000000E+01
  0.1000000E+01
  0.1000000E+01
  0.1000000E+01
  0.1000000E+01
  0.1000000E+01
  0.1000000E+01
  0.1000000E+01
  0.1000000E+01
  0.1000000E+01
  0.1000000E+01
  0.1000000E+01
  0.1000000E+01
  0.1000000E+01
  0.1000000E+01
  0.1000000E+01
  0.1000000E+01
  0.1000000E+01
  0.1000000E+01
  0.1000000E+01
  0.1000000E+01
  0.1000000E+01
  0.1000000E+01
  0.1000000E+01
  0.1000000E+01
  0.1000000E+01
  0.1000000E+01
  0.1000000E+01
  0.1000000E+01
  0.1000000E+01
  0.1000000E+01
  0.1000000E+01
  0.1000000E+01
  0.1000000E+01
  0.1000000E+01
  0.1000000E+01
  0.1000000E+01
  0.1000000E+01
  0.1000000E+01
  0.1000000E+01
  0.1000000E+01
  0.1000000E+01
  0.1000000E+01
  0.1000000E+01
  0.1000000E+01
  0.1000000E+01
  0.1000000E+01
  0.1000000E+01
  0.1000000E+01
  0.1000000E+01
  0.1000000E+01
  0.1000000E+01
  0.1000000E+01
  0.1000000E+01
  0.1000000E+01
  0.1000000E+01
  0.1000000E+01
  0.1000000E+01
  0.1000000E+01
  0.1000000E+01
  0.1000000E+01
  0.1000000E+01
  0.1000000E+01
  0.1000000E+01
  0.1000000E+01
  0.1000000E+01
  0.1000000E+01
  0.1000000E+01
  0.1000000E+01
  0.1000000E+01
  0.1000000E+01
  0.1000000E+01
  0.1000000E+01
  0.1000000E+01
  0.1000000E+01
  0.1000000E+01
  0.1000000E+01
  0.1000000E+01
  0.1000000E+01
  0.1000000E+01
  0.1000000E+01
  0.1000000E+01
  0.1000000E+01
  0.1000000E+01
  0.1000000E+01
  0.1000000E+01
  0.1000000E+01
  0.1000000E+01
  0.1000000E+01
  0.1000000E+01
  0.1000000E+01
  0.1000000E+01
  0.1000000E+01
  0.1000000E+01
  0.1000000E+01
  0.1000000E+01
  0.1000000E+01
  0.1000000E+01
  0.1000000E+01
  0.1000000E+01
  0.1000000E+01
  0.1000000E+01
  0.1000000E+01
  0.1000000E+01
  0.1000000E+01
  0.1000000E+01
  0.1000000E+01
  0.0000000E+00
  0.0000000E+00
  0.1000000E-01
  0.1000000E-01
  0.2000000E-01
  0.2000000E-01
  0.3000000E-01
  0.3000000E-01
  0.0000000E+00
  0.1000000E-01
  0.2000000E-01
  0.3000000E-01
  0.0000000E+00
  0.1000000E-01
  0.2000000E-01
  0.3000000E-01
  0.0000000E+00
  0.1000000E-01
  0.2000000E-01
  0.3000000E-01
  0.0000000E+00
  0.1000000E-01
  0.2000000E-01
  0.3000000E-01
  0.0000000E+00
  0.1000000E-01
  0.2000000E-01
  0.3000000E-01
  0.0000000E+00
  0.1000000E-01
  0.2000000E-01
  0.3000000E-01
  0.0000000E+00
  0.1000000E-01
  0.2000000E-01
  0.3000000E-01
  0.0000000E+00
  0.1000000E-01
  0.2000000E-01
  0.3000000E-01
  0.0000000E+00
  0.1000000E-01
  0.2000000E-01
  0.3000000E-01
  0.0000000E+00
  0.1000000E-01
  0.2000000E-01
  0.3000000E-01
  0.0000000E+00
  0.1000000E-01
  0.2000000E-01
  0.3000000E-01
  0.0000000E+00
  0.1000000E-01
  0.2000000E-01
  0.3000000E-01
  0.0000000E+00
  0.1000000E-01
  0.2000000E-01
  0.3000000E-01
  0.0000000E+00
  0.1000000E-01
  0.2000000E-01
  0.3000000E-01
  0.0000000E+00
  0.1000000E-01
  0.2000000E-01
  0.3000000E-01
  0.0000000E+00
  0.1000000E-01
  0.2000000E-01
  0.3000000E-01
  0.0000000E+00
  0.1000000E-01
  0.2000000E-01
  0.3000000E-01
  0.0000000E+00
  0.1000000E-01
  0.2000000E-01
  0.3000000E-01
  0.0000000E+00
  0.1000000E-01
  0.2000000E-01
  0.3000000E-01
  0.0000000E+00
  0.1000000E-01
  0.2000000E-01
  0.3000000E-01
  0.0000000E+00
  0.1000000E-01
  0.2000000E-01
  0.3000000E-01
  0.0000000E+00
  0.1000000E-01
  0.2000000E-01
  0.3000000E-01
  0.0000000E+00
  0.1000000E-01
  0.2000000E-01
  0.3000000E-01
  0.0000000E+00
  0.1000000E-01
  0.2000000E-01
  0.3000000E-01
  0.0000000E+00
  0.1000000E-01
  0.2000000E-01
  0.3000000E-01
  0.0000000E+00
  0.1000000E-01
  0.2000000E-01
  0.3000000E-01
  0.0000000E+00
  0.1000000E-01
  0.2000000E-01
  0.3000000E-01
  0.0000000E+00
  0.1000000E-01
  0.2000000E-01
  0.3000000E-01
  0.0000000E+00
  0.1000000E-01
  0.2000000E-01
  0.3000000E-01
  0.0000000E+00
  0.1000000E-01
  0.2000000E-01
  0.3000000E-01
  0.0000000E+00
  0.1000000E-01
  0.2000000E-01
  0.3000000E-01
  0.0000000E+00
  0.1000000E-01
  0.2000000E-01
  0.3000000E-01
  0.0000000E+00
  0.1000000E-01
  0.2000000E-01
  0.3000000E-01
  0.0000000E+00
  0.1000000E-01
  0.2000000E-01
  0.3000000E-01
  0.0000000E+00
  0.1000000E-01
  0.2000000E-01
  0.3000000E-01
  0.0000000E+00
  0.1000000E-01
  0.2000000E-01
  0.3000000E-01
  0.0000000E+00
  0.1000000E-01
  0.2000000E-01
  0.3000000E-01
  0.0000000E+00
  0.1000000E-01
  0.2000000E-01
  0.3000000E-01
  0.0000000E+00
  0.1000000E-01
  0.2000000E-01
  0.3000000E-01
  0.0000000E+00
  0.1000000E-01
  0.2000000E-01
  0.3000000E-01
  0.0000000E+00
  0.1000000E-01
  0.2000000E-01
  0.3000000E-01
  0.0000000E+00
  0.1000000E-01
  0.2000000E-01
  0.3000000E-01
  0.0000000E+00
  0.1000000E-01
  0.2000000E-01
  0.3000000E-01
  0.0000000E+00
  0.1000000E-01
  0.2000000E-01
  0.3000000E-01
  0.0000000E+00
  0.1000000E-01
  0.2000000E-01
  0.3000000E-01
  0.0000000E+00
  0.1000000E-01
  0.2000000E-01
  0.3000000E-01
  0.0000000E+00
  0.1000000E-01
  0.2000000E-01
  0.3000000E-01
  0.0000000E+00
  0.1000000E-01
  0.2000000E-01
  0.3000000E-01
  0.0000000E+00
  0.1000000E-01
  0.2000000E-01
  0.3000000E-01
  0.0000000E+00
  0.1000000E-01
  0.2000000E-01
  0.3000000E-01
  0.0000000E+00
  0.1000000E-01
  0.2000000E-01
  0.3000000E-01
  0.0000000E+00
  0.1000000E-01
  0.2000000E-01
  0.3000000E-01
  0.0000000E+00
  0.1000000E-01
  0.2000000E-01
  0.3000000E-01
  0.0000000E+00
  0.1000000E-01
  0.2000000E-01
  0.3000000E-01
  0.0000000E+00
  0.1000000E-01
  0.2000000E-01
  0.3000000E-01
  0.0000000E+00
  0.1000000E-01
  0.2000000E-01
  0.3000000E-01
  0.0000000E+00
  0.1000000E-01
  0.2000000E-01
  0.3000000E-01
  0.0000000E+00
  0.1000000E-01
  0.2000000E-01
  0.3000000E-01
  0.0000000E+00
  0.1000000E-01
  0.2000000E-01
  0.3000000E-01
  0.0000000E+00
  0.1000000E-01
  0.2000000E-01
  0.3000000E-01
  0.0000000E+00
  0.1000000E-01
  0.2000000E-01
  0.3000000E-01
  0.0000000E+00
  0.1000000E-01
  0.2000000E-01
  0.3000000E-01
  0.0000000E+00
  0.1000000E-01
  0.2000000E-01
  0.3000000E-01
  0.0000000E+00
  0.1000000E-01
  0.2000000E-01
  0.3000000E-01
  0.0000000E+00
  0.1000000E-01
  0.2000000E-01
  0.3000000E-01
  0.0000000E+00
  0.1000000E-01
  0.2000000E-01
  0.3000000E-01
  0.0000000E+00
  0.1000000E-01
  0.2000000E-01
  0.3000000E-01
  0.0000000E+00
  0.1000000E-01
  0.2000000E-01
  0.3000000E-01
  0.0000000E+00
  0.1000000E-01
  0.2000000E-01
  0.3000000E-01
  0.0000000E+00
  0.1000000E-01
  0.2000000E-01
  0.3000000E-01
  0.0000000E+00
  0.1000000E-01
  0.2000000E-01
  0.3000000E-01
  0.0000000E+00
  0.1000000E-01
  0.2000000E-01
  0.3000000E-01
  0.0000000E+00
  0.1000000E-01
  0.2000000E-01
  0.3000000E-01
  0.0000000E+00
  0.1000000E-01
  0.2000000E-01
  0.3000000E-01
  0.0000000E+00
  0.1000000E-01
  0.2000000E-01
  0.3000000E-01
  0.0000000E+00
  0.1000000E-01
  0.2000000E-01
  0.3000000E-01
  0.0000000E+00
  0.1000000E-01
  0.2000000E-01
  0.3000000E-01
  0.0000000E+00
  0.1000000E-01
  0.2000000E-01
  0.3000000E-01
  0.0000000E+00
  0.1000000E-01
  0.2000000E-01
  0.3000000E-01
  0.0000000E+00
  0.1000000E-01
  0.2000000E-01
  0.3000000E-01
  0.0000000E+00
  0.1000000E-01
  0.2000000E-01
  0.3000000E-01
  0.0000000E+00
  0.1000000E-01
  0.2000000E-01
  0.3000000E-01
  0.0000000E+00
  0.1000000E-01
  0.2000000E-01
  0.3000000E-01
  0.0000000E+00
  0.1000000E-01
  0.2000000E-01
  0.3000000E-01
  0.0000000E+00
  0.1000000E-01
  0.2000000E-01
  0.3000000E-01
  0.0000000E+00
  0.1000000E-01
  0.2000000E-01
  0.3000000E-01
  0.0000000E+00
  0.1000000E-01
  0.2000000E-01
  0.3000000E-01
  0.5307684E+04
  0.5307402E+04
  0.5307737E+04
  0.5341458E+04
  0.5341182E+04
  0.5341541E+04
  0.5345103E+04
  0.5344939E+04
  0.5345269E+04
  0.5346202E+04
  0.5345951E+04
  0.5346311E+04
  0.5333565E+04
  0.5333023E+04
  0.5333407E+04
  0.5308143E+04
  0.5307336E+04
  0.5307857E+04
  0.5272194E+04
  0.5272633E+04
  0.5272112E+04
  0.5225501E+04
  0.5224965E+04
  0.5225788E+04
  0.5172309E+04
  0.5171871E+04
  0.5172619E+04
  0.5111008E+04
  0.5111020E+04
  0.5110966E+04
  0.5043011E+04
  0.5042933E+04
  0.5042848E+04
  0.4968352E+04
  0.4967391E+04
  0.4968048E+04
  0.4888205E+04
  0.4887478E+04
  0.4887857E+04
  0.4801534E+04
  0.4801278E+04
  0.4801917E+04
  0.4710751E+04
  0.4710066E+04
  0.4710201E+04
  0.4614209E+04
  0.4614128E+04
  0.4614631E+04
  0.4512831E+04
  0.4512733E+04
  0.4513099E+04
  0.4408651E+04
  0.4407616E+04
  0.4407803E+04
  0.4299141E+04
  0.4298684E+04
  0.4298876E+04
  0.4185731E+04
  0.4185514E+04
  0.4185982E+04
  0.4069752E+04
  0.4069172E+04
  0.4069676E+04
  0.3948877E+04
  0.3948254E+04
  0.3948913E+04
  0.3825396E+04
  0.3824883E+04
  0.3825078E+04
  0.3700595E+04
  0.3699930E+04
  0.3700469E+04
  0.3573330E+04
  0.3572608E+04
  0.3573004E+04
  0.3443180E+04
  0.3442663E+04
  0.3443073E+04
  0.3317802E+04
  0.3317339E+04
  0.3317838E+04
  0.3192977E+04
  0.3192319E+04
  0.3192350E+04
  0.3059561E+04
  0.3058976E+04
  0.3059789E+04
  0.2929538E+04
  0.2929030E+04
  0.2929276E+04
  0.2800800E+04
  0.2800236E+04
  0.2800800E+04
  0.2671045E+04
  0.2670740E+04
  0.2670954E+04
  0.2541719E+04
  0.2541097E+04
  0.2541703E+04
  0.2416280E+04
  0.2415512E+04
  0.2415927E+04
  0.2290361E+04
  0.2289259E+04
  0.2289770E+04
  0.2165954E+04
  0.2165734E+04
  0.2166468E+04
  0.2043069E+04
  0.2042992E+04
  0.2043051E+04
  0.1927759E+04
  0.1928215E+04
  0.1927545E+04
  0.1807398E+04
  0.1806731E+04
  0.1807515E+04
  0.1695139E+04
  0.1693867E+04
  0.1694804E+04
  0.1577489E+04
  0.1576990E+04
  0.1577664E+04
  0.1479040E+04
  0.1478913E+04
  0.1478785E+04
  0.1361512E+04
  0.1361739E+04
  0.1361573E+04
  0.1272298E+04
  0.1271814E+04
  0.1272171E+04
  0.1157480E+04
  0.1157449E+04
  0.1157523E+04
  0.1088887E+04
  0.1088746E+04
  0.1088823E+04
  0.9629911E+03
  0.9617204E+03
  0.9630147E+03
  0.9420396E+03
  0.9421542E+03
  0.9419874E+03
  0.6906623E+03
  0.6903617E+03
  0.6906760E+03
  0.8024733E+03
  0.8023253E+03
  0.8025813E+03
  0.7477582E+03
  0.7475385E+03
  0.7478012E+03
  0.7320657E+03
  0.7318158E+03
  0.7320964E+03
  0.7280967E+03
  0.7278286E+03
  0.7281167E+03
  0.7245050E+03
  0.7242250E+03
  0.7245185E+03
  0.7200160E+03
  0.7197346E+03
  0.7200264E+03
  0.7154945E+03
  0.7152179E+03
  0.7155032E+03
  0.7111454E+03
  0.7108720E+03
  0.7111519E+03
  0.7069506E+03
  0.7066715E+03
  0.7069515E+03
  0.7035291E+03
  0.7032399E+03
  0.7035212E+03
  0.7014577E+03
  0.7011752E+03
  0.7014430E+03
  0.6994300E+03
  0.6992019E+03
  0.6994207E+03
  0.6950175E+03
  0.6948976E+03
  0.6950311E+03
  0.6868717E+03
  0.6868566E+03
  0.6869141E+03
  0.6775439E+03
  0.6775268E+03
  0.6775942E+03
  0.6705125E+03
  0.6702761E+03
  0.6705147E+03
  0.6685984E+03
  0.6679044E+03
  0.6684850E+03
  0.6629735E+03
  0.6614831E+03
  0.6626351E+03
  0.6569451E+03
  0.6545755E+03
  0.6563416E+03
  0.6470811E+03
  0.6436943E+03
  0.6461480E+03
  0.6317464E+03
  0.6269845E+03
  0.6303591E+03
  0.6182736E+03
  0.6121286E+03
  0.6164385E+03
  0.5965848E+03
  0.5887321E+03
  0.5941504E+03
  0.5793894E+03
  0.5695631E+03
  0.5762096E+03
  0.5561326E+03
  0.5443555E+03
  0.5522535E+03
  0.5366373E+03
  0.5231711E+03
  0.5321528E+03
  0.5181707E+03
  0.5033046E+03
  0.5133017E+03
  0.5012872E+03
  0.4850112E+03
  0.4959597E+03
  0.4826131E+03
  0.4655256E+03
  0.4772290E+03
  0.4660700E+03
  0.4482027E+03
  0.4607412E+03
  0.4544950E+03
  0.4357820E+03
  0.4493066E+03
  0.4408747E+03
  0.4213889E+03
  0.4359723E+03
  0.4297198E+03
  0.4096865E+03
  0.4253397E+03
  0.4145981E+03
  0.3948587E+03
  0.4109202E+03
  0.4018687E+03
  0.3823500E+03
  0.3989129E+03
  0.3913829E+03
  0.3720278E+03
  0.3892432E+03
  0.3834486E+03
  0.3641439E+03
  0.3819610E+03
  0.3785208E+03
  0.3590882E+03
  0.3777297E+03
  0.3753575E+03
  0.3557564E+03
  0.3752118E+03
  0.5307684E+04
  0.5307402E+04
  0.5307737E+04
  0.5341458E+04
  0.5341182E+04
  0.5341541E+04
  0.5345103E+04
  0.5344939E+04
  0.5345269E+04
  0.5346202E+04
  0.5345951E+04
  0.5346311E+04
  0.5333565E+04
  0.5333023E+04
  0.5333407E+04
  0.5308143E+04
  0.5307336E+04
  0.5307857E+04
  0.5272194E+04
  0.5272633E+04
  0.5272112E+04
  0.5225501E+04
  0.5224965E+04
  0.5225788E+04
  0.5172309E+04
  0.5171871E+04
  0.5172619E+04
  0.5111008E+04
  0.5111020E+04
  0.5110966E+04
  0.5043011E+04
  0.5042933E+04
  0.5042848E+04
  0.4968352E+04
  0.4967391E+04
  0.4968048E+04
  0.4888205E+04
  0.4887478E+04
  0.4887857E+04
  0.4801534E+04
  0.4801278E+04
  0.4801917E+04
  0.4710751E+04
  0.4710066E+04
  0.4710201E+04
  0.4614209E+04
  0.4614128E+04
  0.4614631E+04
  0.4512831E+04
  0.4512733E+04
  0.4513099E+04
  0.4408651E+04
  0.4407616E+04
  0.4407803E+04
  0.4299141E+04
  0.4298684E+04
  0.4298876E+04
  0.4185731E+04
  0.4185514E+04
  0.4185982E+04
  0.4069752E+04
  0.4069172E+04
  0.4069676E+04
  0.3948877E+04
  0.3948254E+04
  0.3948913E+04
  0.3825396E+04
  0.3824883E+04
  0.3825078E+04
  0.3700595E+04
  0.3699930E+04
  0.3700469E+04
  0.3573330E+04
  0.3572608E+04
  0.3573004E+04
  0.3443180E+04
  0.3442663E+04
  0.3443073E+04
  0.3317802E+04
  0.3317339E+04
  0.3317838E+04
  0.3192977E+04
  0.3192319E+04
  0.3192350E+04
  0.3059561E+04
  0.3058976E+04
  0.3059789E+04
  0.2929538E+04
  0.2929030E+04
  0.2929276E+04
  0.2800800E+04
  0.2800236E+04
  0.2800800E+04
  0.2671045E+04
  0.2670740E+04
  0.2670954E+04
  0.2541719E+04
  0.2541097E+04
  0.2541703E+04
  0.2416280E+04
  0.2415512E+04
  0.2415927E+04
  0.2290361E+04
  0.2289259E+04
  0.2289770E+04
  0.2165954E+04
  0.2165734E+04
  0.2166468E+04
  0.2043069E+04
  0.2042992E+04
  0.2043051E+04
  0.1927759E+04
  0.1928215E+04
  0.1927545E+04
  0.1807398E+04
  0.1806731E+04
  0.1807515E+04
  0.1695139E+04
  0.1693867E+04
  0.1694804E+04
  0.1577489E+04
  0.1576990E+04
  0.1577664E+04
  0.1479040E+04
  0.1478913E+04
  0.1478785E+04
  0.1361512E+04
  0.1361739E+04
  0.1361573E+04
  0.1272298E+04
  0.1271814E+04
  0.1272171E+04
  0.1157480E+04
  0.1157449E+04
  0.1157523E+04
  0.1088887E+04
  0.1088746E+04
  0.1088823E+04
  0.9629911E+03
  0.9617204E+03
  0.9630147E+03
  0.9420396E+03
  0.9421542E+03
  0.9419874E+03
  0.6906623E+03
  0.6903617E+03
  0.6906760E+03
  0.8024733E+03
  0.8023253E+03
  0.8025813E+03
  0.7477582E+03
  0.7475385E+03
  0.7478012E+03
  0.7320657E+03
  0.7318158E+03
  0.7320964E+03
  0.7280967E+03
  0.7278286E+03
  0.7281167E+03
  0.7245050E+03
  0.7242250E+03
  0.7245185E+03
  0.7200160E+03
  0.7197346E+03
  0.7200264E+03
  0.7154945E+03
  0.7152179E+03
  0.7155032E+03
  0.7111454E+03
  0.7108720E+03
  0.7111519E+03
  0.7069506E+03
  0.7066715E+03
  0.7069515E+03
  0.7035291E+03
  0.7032399E+03
  0.7035212E+03
  0.7014577E+03
  0.7011752E+03
  0.7014430E+03
  0.6994300E+03
  0.6992019E+03
  0.6994207E+03
  0.6950175E+03
  0.6948976E+03
  0.6950311E+03
  0.6868717E+03
  0.6868566E+03
  0.6869141E+03
  0.6775439E+03
  0.6775268E+03
  0.6775942E+03
  0.6705125E+03
  0.6702761E+03
  0.6705147E+03
  0.6685984E+03
  0.6679044E+03
  0.6684850E+03
  0.6629735E+03
  0.6614831E+03
  0.6626351E+03
  0.6569451E+03
  0.6545755E+03
  0.6563416E+03
  0.6470811E+03
  0.6436943E+03
  0.6461480E+03
  0.6317464E+03
  0.6269845E+03
  0.6303591E+03
  0.6182736E+03
  0.6121286E+03
  0.6164385E+03
  0.5965848E+03
  0.5887321E+03
  0.5941504E+03
  0.5793894E+03
  0.5695631E+03
  0.5762096E+03
  0.5561326E+03
  0.5443555E+03
  0.5522535E+03
  0.5366373E+03
  0.5231711E+03
  0.5321528E+03
  0.5181707E+03
  0.5033046E+03
  0.5133017E+03
  0.5012872E+03
  0.4850112E+03
  0.4959597E+03
  0.4826131E+03
  0.4655256E+03
  0.4772290E+03
  0.4660700E+03
  0.4482027E+03
  0.4607412E+03
  0.4544950E+03
  0.4357820E+03
  0.4493066E+03
  0.4408747E+03
  0.4213889E+03
  0.4359723E+03
  0.4297198E+03
  0.4096865E+03
  0.4253397E+03
  0.4145981E+03
  0.3948587E+03
  0.4109202E+03
  0.4018687E+03
  0.3823500E+03
  0.3989129E+03
  0.3913829E+03
  0.3720278E+03
  0.3892432E+03
  0.3834486E+03
  0.3641439E+03
  0.3819610E+03
  0.3785208E+03
  0.3590882E+03
  0.3777297E+03
  0.3753575E+03
  0.3557564E+03
  0.3752118E+03
  0.1928063E+03
  0.1928063E+03
  0.1928063E+03
  0.1928063E+03
  0.1928063E+03
  0.1928063E+03
  0.1928063E+03
  0.1928063E+03
  0.1928063E+03
  0.1928063E+03
  0.1928063E+03
  0.1928063E+03
  0.1928063E+03
  0.1928063E+03
  0.1928063E+03
  0.1928063E+03
  0.1928063E+03
  0.1928063E+03
  0.1928063E+03
  0.1928063E+03
  0.1928063E+03
  0.1928063E+03
  0.1928063E+03
  0.1928063E+03
  0.1928063E+03
  0.1928063E+03
  0.1928063E+03
  0.1928063E+03
  0.1928063E+03
  0.1928063E+03
  0.1928063E+03
  0.1928063E+03
  0.1928063E+03
  0.1928063E+03
  0.1928063E+03
  0.1928063E+03
  0.1928063E+03
  0.1928063E+03
  0.1928063E+03
  0.1928063E+03
  0.1928063E+03
  0.1928063E+03
  0.1928063E+03
  0.1928063E+03
  0.1928063E+03
  0.1928063E+03
  0.1928063E+03
  0.1928063E+03
  0.1928063E+03
  0.1928063E+03
  0.1928063E+03
  0.1928063E+03
  0.1928063E+03
  0.1928063E+03
  0.1928063E+03
  0.1928063E+03
  0.1928063E+03
  0.1928063E+03
  0.1928063E+03
  0.1928063E+03
  0.1928063E+03
  0.1928063E+03
  0.1928063E+03
  0.1928063E+03
  0.1928063E+03
  0.1928063E+03
  0.1928063E+03
  0.1928063E+03
  0.1928063E+03
  0.1928063E+03
  0.1928063E+03
  0.1928063E+03
  0.1928063E+03
  0.1928063E+03
  0.1928063E+03
  0.1928063E+03
  0.1928063E+03
  0.1928063E+03
  0.1928063E+03
  0.1928063E+03
  0.1928063E+03
  0.1928063E+03
  0.1928063E+03
  0.1928063E+03
  0.1928063E+03
  0.1928063E+03
  0.1928063E+03
  0.1928063E+03
  0.1928063E+03
  0.1928063E+03
  0.1928063E+03
  0.1928063E+03
  0.1928063E+03
  0.1928063E+03
  0.1928063E+03
  0.1928063E+03
  0.1928063E+03
  0.1928063E+03
  0.1928063E+03
  0.1928063E+03
  0.1928063E+03
  0.1928063E+03
  0.1928063E+03
  0.1928063E+03
  0.1928063E+03
  0.1928063E+03
  0.1928063E+03
  0.1928063E+03
  0.1928063E+03
  0.1928063E+03
  0.1928063E+03
  0.1928063E+03
  0.1928063E+03
  0.1928063E+03
  0.1928063E+03
  0.1928063E+03
  0.1928063E+03
  0.1928063E+03
  0.1928063E+03
  0.1928063E+03
  0.1928063E+03
  0.1928063E+03
  0.1928063E+03
  0.1928063E+03
  0.1928063E+03
  0.1928063E+03
  0.1928063E+03
  0.1928063E+03
  0.1928063E+03
  0.1928063E+03
  0.1928063E+03
  0.1928063E+03
  0.1928063E+03
  0.1928063E+03
  0.1928063E+03
  0.1928063E+03
  0.1928063E+03
  0.1928063E+03
  0.1928063E+03
  0.1928063E+03
  0.1928063E+03
  0.1928063E+03
  0.1928063E+03
  0.1928063E+03
  0.1928063E+03
  0.1928063E+03
  0.1928063E+03
  0.1928063E+03
  0.1928063E+03
  0.1928063E+03
  0.1928063E+03
  0.1928063E+03
  0.1928063E+03
  0.1928063E+03
  0.1928063E+03
  0.1928063E+03
  0.1928063E+03
  0.1928063E+03
  0.1928063E+03
  0.1928063E+03
  0.1928063E+03
  0.1928063E+03
  0.1928063E+03
  0.1928063E+03
  0.1928063E+03
  0.1928063E+03
  0.1928063E+03
  0.1928063E+03
  0.1928063E+03
  0.1928063E+03
  0.1928063E+03
  0.1928063E+03
  0.1928063E+03
  0.1928063E+03
  0.1928063E+03
  0.1928063E+03
  0.1928063E+03
  0.1928063E+03
  0.1928063E+03
  0.1928063E+03
  0.1928063E+03
  0.1928063E+03
  0.1928063E+03
  0.1928063E+03
  0.1928063E+03
  0.1928063E+03
  0.1928063E+03
  0.1928063E+03
  0.1928063E+03
  0.1928063E+03
  0.1928063E+03
  0.1928063E+03
  0.1928063E+03
  0.1928063E+03
  0.1928063E+03
  0.1928063E+03
  0.1928063E+03
  0.1928063E+03
  0.1928063E+03
  0.1928063E+03
  0.1928063E+03
  0.1928063E+03
  0.1928063E+03
  0.1928063E+03
  0.1928063E+03
  0.1928063E+03
  0.1928063E+03
  0.1928063E+03
  0.1928063E+03
  0.1928063E+03
  0.1928063E+03
  0.1928063E+03
  0.1928063E+03
  0.1928063E+03
  0.1928063E+03
  0.1928063E+03
  0.1928063E+03
  0.1928063E+03
  0.1928063E+03
  0.1928063E+03
  0.1928063E+03
  0.1928063E+03
  0.1928063E+03
  0.1928063E+03
  0.1928063E+03
  0.1928063E+03
  0.1928063E+03
  0.1928063E+03
  0.1928063E+03
  0.1928063E+03
  0.1928063E+03
  0.1928063E+03
  0.1928063E+03
  0.1928063E+03
  0.1928063E+03
  0.1928063E+03
  0.1928063E+03
  0.1928063E+03
  0.1928063E+03
  0.1928063E+03
  0.1928063E+03
  0.1928063E+03
  0.1928063E+03
  0.1928063E+03
  0.1928063E+03
  0.1928063E+03
  0.1928063E+03
  0.1928063E+03
  0.1928063E+03
  0.1928063E+03
  0.1928063E+03
  0.1928063E+03
  0.1928063E+03
  0.1928063E+03
  0.1928063E+03
  0.1928063E+03
  0.1928063E+03
  0.1928063E+03
  0.1928063E+03
  0.1928063E+03
  0.1928063E+03
  0.1928063E+03
  0.1928063E+03
  0.1928063E+03
  0.5114877E+04