 TITLE = "VectorSurfaceData"
VARIABLES = "x" "y" "z"
  "FullConvective"
  "FourierOnly"
  "Radiant"
  "Balance"
 ZONE T=Bnd4 DATAPACKING=Block
 N=356
 E=264
 ZONETYPE=FEQUADRILATERAL
 VarLocation=([4-7]=CellCentered)
 -0.1000000E+01
 -0.9994853E+00
 -0.1000000E+01
 -0.9994834E+00
 -0.1000000E+01
 -0.9994834E+00
 -0.1000000E+01
 -0.9994860E+00
 -0.9979451E+00
 -0.9979414E+00
 -0.9979414E+00
 -0.9979452E+00
 -0.9953786E+00
 -0.9953778E+00
 -0.9953778E+00
 -0.9953790E+00
 -0.9917892E+00
 -0.9917862E+00
 -0.9917862E+00
 -0.9917896E+00
 -0.9871809E+00
 -0.9871798E+00
 -0.9871798E+00
 -0.9871815E+00
 -0.9815586E+00
 -0.9815550E+00
 -0.9815550E+00
 -0.9815591E+00
 -0.9749277E+00
 -0.9749275E+00
 -0.9749275E+00
 -0.9749278E+00
 -0.9672939E+00
 -0.9672911E+00
 -0.9672911E+00
 -0.9672946E+00
 -0.9586671E+00
 -0.9586636E+00
 -0.9586636E+00
 -0.9586675E+00
 -0.9490548E+00
 -0.9490536E+00
 -0.9490536E+00
 -0.9490556E+00
 -0.9384679E+00
 -0.9384673E+00
 -0.9384673E+00
 -0.9384682E+00
 -0.9269156E+00
 -0.9269134E+00
 -0.9269134E+00
 -0.9269164E+00
 -0.9144118E+00
 -0.9144084E+00
 -0.9144084E+00
 -0.9144123E+00
 -0.9009688E+00
 -0.9009644E+00
 -0.9009644E+00
 -0.9009686E+00
 -0.8865987E+00
 -0.8865950E+00
 -0.8865950E+00
 -0.8865986E+00
 -0.8713178E+00
 -0.8713146E+00
 -0.8713147E+00
 -0.8713185E+00
 -0.8551418E+00
 -0.8551390E+00
 -0.8551390E+00
 -0.8551422E+00
 -0.8380879E+00
 -0.8380844E+00
 -0.8380844E+00
 -0.8380877E+00
 -0.8201720E+00
 -0.8201686E+00
 -0.8201686E+00
 -0.8201717E+00
 -0.8014134E+00
 -0.8014100E+00
 -0.8014100E+00
 -0.8014132E+00
 -0.7818312E+00
 -0.7818277E+00
 -0.7818277E+00
 -0.7818308E+00
 -0.7614457E+00
 -0.7614422E+00
 -0.7614422E+00
 -0.7614459E+00
 -0.7402778E+00
 -0.7402742E+00
 -0.7402742E+00
 -0.7402774E+00
 -0.7183493E+00
 -0.7183456E+00
 -0.7183456E+00
 -0.7183490E+00
 -0.6956825E+00
 -0.6956789E+00
 -0.6956789E+00
 -0.6956822E+00
 -0.6723008E+00
 -0.6722974E+00
 -0.6722974E+00
 -0.6723003E+00
 -0.6482282E+00
 -0.6482252E+00
 -0.6482252E+00
 -0.6482283E+00
 -0.6234896E+00
 -0.6234869E+00
 -0.6234868E+00
 -0.6234893E+00
 -0.5981104E+00
 -0.5981078E+00
 -0.5981078E+00
 -0.5981102E+00
 -0.5721166E+00
 -0.5721142E+00
 -0.5721142E+00
 -0.5721163E+00
 -0.5455348E+00
 -0.5455325E+00
 -0.5455325E+00
 -0.5455346E+00
 -0.5183920E+00
 -0.5183903E+00
 -0.5183902E+00
 -0.5183921E+00
 -0.4907171E+00
 -0.4907153E+00
 -0.4907153E+00
 -0.4907174E+00
 -0.4625380E+00
 -0.4625360E+00
 -0.4625360E+00
 -0.4625379E+00
 -0.4338838E+00
 -0.4338816E+00
 -0.4338816E+00
 -0.4338835E+00
 -0.4047830E+00
 -0.4047815E+00
 -0.4047815E+00
 -0.4047831E+00
 -0.3752666E+00
 -0.3752657E+00
 -0.3752656E+00
 -0.3752668E+00
 -0.3453649E+00
 -0.3453646E+00
 -0.3453646E+00
 -0.3453649E+00
 -0.3151079E+00
 -0.3151075E+00
 -0.3151075E+00
 -0.3151081E+00
 -0.2845274E+00
 -0.2845263E+00
 -0.2845263E+00
 -0.2845274E+00
 -0.2536543E+00
 -0.2536536E+00
 -0.2536536E+00
 -0.2536544E+00
 -0.2225209E+00
 -0.2225208E+00
 -0.2225208E+00
 -0.2225209E+00
 -0.1911585E+00
 -0.1911578E+00
 -0.1911578E+00
 -0.1911586E+00
 -0.1595998E+00
 -0.1595996E+00
 -0.1595996E+00
 -0.1595998E+00
 -0.1278771E+00
 -0.1278767E+00
 -0.1278767E+00
 -0.1278771E+00
 -0.9602296E-01
 -0.9602289E-01
 -0.9602289E-01
 -0.9602299E-01
 -0.6407019E-01
 -0.6406996E-01
 -0.6406996E-01
 -0.6407019E-01
 -0.3205154E-01
 -0.3205148E-01
 -0.3205148E-01
 -0.3205156E-01
  0.0000000E+00
  0.0000000E+00
  0.8881784E-15
  0.0000000E+00
  0.2886150E-01
  0.2886150E-01
  0.2886150E-01
  0.2886150E-01
  0.6261033E-01
  0.6261033E-01
  0.6261033E-01
  0.6261033E-01
  0.1020712E+00
  0.1020712E+00
  0.1020712E+00
  0.1020712E+00
  0.1482067E+00
  0.1482067E+00
  0.1482067E+00
  0.1482067E+00
  0.2021406E+00
  0.2021406E+00
  0.2021406E+00
  0.2021406E+00
  0.2651834E+00
  0.2651834E+00
  0.2651834E+00
  0.2651834E+00
  0.3388632E+00
  0.3388632E+00
  0.3388632E+00
  0.3388632E+00
  0.4249609E+00
  0.4249609E+00
  0.4249609E+00
  0.4249609E+00
  0.5255501E+00
  0.5255501E+00
  0.5255501E+00
  0.5255501E+00
  0.6430441E+00
  0.6430441E+00
  0.6430441E+00
  0.6430441E+00
  0.7802481E+00
  0.7802481E+00
  0.7802481E+00
  0.7802481E+00
  0.9404202E+00
  0.9404202E+00
  0.9404202E+00
  0.9404202E+00
  0.1127339E+01
  0.1127339E+01
  0.1127339E+01
  0.1127339E+01
  0.1345381E+01
  0.1345381E+01
  0.1345381E+01
  0.1345381E+01
  0.1599607E+01
  0.1599607E+01
  0.1599607E+01
  0.1599607E+01
  0.1895853E+01
  0.1895853E+01
  0.1895853E+01
  0.1895853E+01
  0.2240842E+01
  0.2240842E+01
  0.2240842E+01
  0.2240842E+01
  0.2642286E+01
  0.2642286E+01
  0.2642286E+01
  0.2642286E+01
  0.3109011E+01
  0.3109011E+01
  0.3109011E+01
  0.3109011E+01
  0.3651075E+01
  0.3651075E+01
  0.3651075E+01
  0.3651075E+01
  0.4279886E+01
  0.4279886E+01
  0.4279886E+01
  0.4279886E+01
  0.5008316E+01
  0.5008316E+01
  0.5008316E+01
  0.5008316E+01
  0.5850793E+01
  0.5850793E+01
  0.5850793E+01
  0.5850793E+01
  0.6823364E+01
  0.6823364E+01
  0.6823364E+01
  0.6823364E+01
  0.7943715E+01
  0.7943715E+01
  0.7943715E+01
  0.7943715E+01
  0.9231117E+01
  0.9231117E+01
  0.9231117E+01
  0.9231117E+01
  0.1070629E+02
  0.1070629E+02
  0.1070629E+02
  0.1070629E+02
  0.1239113E+02
  0.1239113E+02
  0.1239113E+02
  0.1239113E+02
  0.1430832E+02
  0.1430832E+02
  0.1430832E+02
  0.1430832E+02
  0.1648070E+02
  0.1648070E+02
  0.1648070E+02
  0.1648070E+02
  0.1893051E+02
  0.1893051E+02
  0.1893051E+02
  0.1893051E+02
  0.2167831E+02
  0.2167831E+02
  0.2167831E+02
  0.2167831E+02
  0.2474178E+02
  0.2474178E+02
  0.2474178E+02
  0.2474178E+02
  0.2813426E+02
  0.2813426E+02
  0.2813426E+02
  0.2813426E+02
  0.3186315E+02
  0.3186315E+02
  0.3186315E+02
  0.3186315E+02
  0.3592838E+02
  0.3592838E+02
  0.3592838E+02
  0.3592838E+02
  0.4032088E+02
  0.4032088E+02
  0.4032088E+02
  0.4032088E+02
  0.4502143E+02
  0.4502143E+02
  0.4502143E+02
  0.4502143E+02
  0.5000000E+02
  0.5000000E+02
  0.5000000E+02
  0.5000000E+02
  0.0000000E+00
  0.3205154E-01
  0.0000000E+00
  0.3205148E-01
  0.0000000E+00
  0.3205148E-01
  0.0000000E+00
  0.3205156E-01
  0.6407019E-01
  0.6406996E-01
  0.6406996E-01
  0.6407019E-01
  0.9602296E-01
  0.9602289E-01
  0.9602289E-01
  0.9602299E-01
  0.1278771E+00
  0.1278767E+00
  0.1278767E+00
  0.1278771E+00
  0.1595998E+00
  0.1595996E+00
  0.1595996E+00
  0.1595998E+00
  0.1911585E+00
  0.1911578E+00
  0.1911578E+00
  0.1911586E+00
  0.2225209E+00
  0.2225208E+00
  0.2225208E+00
  0.2225209E+00
  0.2536543E+00
  0.2536536E+00
  0.2536536E+00
  0.2536544E+00
  0.2845274E+00
  0.2845263E+00
  0.2845263E+00
  0.2845274E+00
  0.3151079E+00
  0.3151075E+00
  0.3151075E+00
  0.3151081E+00
  0.3453649E+00
  0.3453646E+00
  0.3453646E+00
  0.3453649E+00
  0.3752666E+00
  0.3752657E+00
  0.3752656E+00
  0.3752668E+00
  0.4047830E+00
  0.4047815E+00
  0.4047815E+00
  0.4047831E+00
  0.4338838E+00
  0.4338816E+00
  0.4338816E+00
  0.4338835E+00
  0.4625380E+00
  0.4625360E+00
  0.4625360E+00
  0.4625379E+00
  0.4907171E+00
  0.4907153E+00
  0.4907153E+00
  0.4907174E+00
  0.5183920E+00
  0.5183903E+00
  0.5183902E+00
  0.5183921E+00
  0.5455348E+00
  0.5455325E+00
  0.5455325E+00
  0.5455346E+00
  0.5721166E+00
  0.5721142E+00
  0.5721142E+00
  0.5721163E+00
  0.5981104E+00
  0.5981078E+00
  0.5981078E+00
  0.5981102E+00
  0.6234896E+00
  0.6234869E+00
  0.6234868E+00
  0.6234893E+00
  0.6482282E+00
  0.6482252E+00
  0.6482252E+00
  0.6482283E+00
  0.6723008E+00
  0.6722974E+00
  0.6722974E+00
  0.6723003E+00
  0.6956825E+00
  0.6956789E+00
  0.6956789E+00
  0.6956822E+00
  0.7183493E+00
  0.7183456E+00
  0.7183456E+00
  0.7183490E+00
  0.7402778E+00
  0.7402742E+00
  0.7402742E+00
  0.7402774E+00
  0.7614457E+00
  0.7614422E+00
  0.7614422E+00
  0.7614459E+00
  0.7818312E+00
  0.7818277E+00
  0.7818277E+00
  0.7818308E+00
  0.8014134E+00
  0.8014100E+00
  0.8014100E+00
  0.8014132E+00
  0.8201720E+00
  0.8201686E+00
  0.8201686E+00
  0.8201717E+00
  0.8380879E+00
  0.8380844E+00
  0.8380844E+00
  0.8380877E+00
  0.8551418E+00
  0.8551390E+00
  0.8551390E+00
  0.8551422E+00
  0.8713178E+00
  0.8713146E+00
  0.8713147E+00
  0.8713185E+00
  0.8865987E+00
  0.8865950E+00
  0.8865950E+00
  0.8865986E+00
  0.9009688E+00
  0.9009644E+00
  0.9009644E+00
  0.9009686E+00
  0.9144118E+00
  0.9144084E+00
  0.9144084E+00
  0.9144123E+00
  0.9269156E+00
  0.9269134E+00
  0.9269134E+00
  0.9269164E+00
  0.9384679E+00
  0.9384673E+00
  0.9384673E+00
  0.9384682E+00
  0.9490548E+00
  0.9490536E+00
  0.9490536E+00
  0.9490556E+00
  0.9586671E+00
  0.9586636E+00
  0.9586636E+00
  0.9586675E+00
  0.9672939E+00
  0.9672911E+00
  0.9672911E+00
  0.9672946E+00
  0.9749277E+00
  0.9749275E+00
  0.9749275E+00
  0.9749278E+00
  0.9815586E+00
  0.9815550E+00
  0.9815550E+00
  0.9815591E+00
  0.9871809E+00
  0.9871798E+00
  0.9871798E+00
  0.9871815E+00
  0.9917892E+00
  0.9917862E+00
  0.9917862E+00
  0.9917896E+00
  0.9953786E+00
  0.9953778E+00
  0.9953778E+00
  0.9953790E+00
  0.9979451E+00
  0.9979414E+00
  0.9979414E+00
  0.9979452E+00
  0.9994853E+00
  0.9994834E+00
  0.9994834E+00
  0.9994860E+00
  0.1000000E+01
  0.1000000E+01
  0.1000000E+01
  0.1000000E+01
  0.1000000E+01
  0.1000000E+01
  0.1000000E+01
  0.1000000E+01
  0.1000000E+01
  0.1000000E+01
  0.1000000E+01
  0.1000000E+01
  0.1000000E+01
  0.1000000E+01
  0.1000000E+01
  0.1000000E+01
  0.1000000E+01
  0.1000000E+01
  0.1000000E+01
  0.1000000E+01
  0.1000000E+01
  0.1000000E+01
  0.1000000E+01
  0.1000000E+01
  0.1000000E+01
  0.1000000E+01
  0.1000000E+01
  0.1000000E+01
  0.1000000E+01
  0.1000000E+01
  0.1000000E+01
  0.1000000E+01
  0.1000000E+01
  0.1000000E+01
  0.1000000E+01
  0.1000000E+01
  0.1000000E+01
  0.1000000E+01
  0.1000000E+01
  0.1000000E+01
  0.1000000E+01
  0.1000000E+01
  0.1000000E+01
  0.1000000E+01
  0.1000000E+01
  0.1000000E+01
  0.1000000E+01
  0.1000000E+01
  0.1000000E+01
  0.1000000E+01
  0.1000000E+01
  0.1000000E+01
  0.1000000E+01
  0.1000000E+01
  0.1000000E+01
  0.1000000E+01
  0.1000000E+01
  0.1000000E+01
  0.1000000E+01
  0.1000000E+01
  0.1000000E+01
  0.1000000E+01
  0.1000000E+01
  0.1000000E+01
  0.1000000E+01
  0.1000000E+01
  0.1000000E+01
  0.1000000E+01
  0.1000000E+01
  0.1000000E+01
  0.1000000E+01
  0.1000000E+01
  0.1000000E+01
  0.1000000E+01
  0.1000000E+01
  0.1000000E+01
  0.1000000E+01
  0.1000000E+01
  0.1000000E+01
  0.1000000E+01
  0.1000000E+01
  0.1000000E+01
  0.1000000E+01
  0.1000000E+01
  0.1000000E+01
  0.1000000E+01
  0.1000000E+01
  0.1000000E+01
  0.1000000E+01
  0.1000000E+01
  0.1000000E+01
  0.1000000E+01
  0.1000000E+01
  0.1000000E+01
  0.1000000E+01
  0.1000000E+01
  0.1000000E+01
  0.1000000E+01
  0.1000000E+01
  0.1000000E+01
  0.1000000E+01
  0.1000000E+01
  0.1000000E+01
  0.1000000E+01
  0.1000000E+01
  0.1000000E+01
  0.1000000E+01
  0.1000000E+01
  0.1000000E+01
  0.1000000E+01
  0.1000000E+01
  0.1000000E+01
  0.1000000E+01
  0.1000000E+01
  0.1000000E+01
  0.1000000E+01
  0.1000000E+01
  0.1000000E+01
  0.1000000E+01
  0.1000000E+01
  0.1000000E+01
  0.1000000E+01
  0.1000000E+01
  0.1000000E+01
  0.1000000E+01
  0.1000000E+01
  0.1000000E+01
  0.1000000E+01
  0.1000000E+01
  0.1000000E+01
  0.1000000E+01
  0.1000000E+01
  0.1000000E+01
  0.1000000E+01
  0.1000000E+01
  0.1000000E+01
  0.1000000E+01
  0.1000000E+01
  0.1000000E+01
  0.1000000E+01
  0.1000000E+01
  0.1000000E+01
  0.1000000E+01
  0.1000000E+01
  0.1000000E+01
  0.1000000E+01
  0.1000000E+01
  0.1000000E+01
  0.1000000E+01
  0.1000000E+01
  0.1000000E+01
  0.1000000E+01
  0.1000000E+01
  0.1000000E+01
  0.1000000E+01
  0.1000000E+01
  0.1000000E+01
  0.1000000E+01
  0.1000000E+01
  0.1000000E+01
  0.0000000E+00
  0.0000000E+00
  0.1000000E-01
  0.1000000E-01
  0.2000000E-01
  0.2000000E-01
  0.3000000E-01
  0.3000000E-01
  0.0000000E+00
  0.1000000E-01
  0.2000000E-01
  0.3000000E-01
  0.0000000E+00
  0.1000000E-01
  0.2000000E-01
  0.3000000E-01
  0.0000000E+00
  0.1000000E-01
  0.2000000E-01
  0.3000000E-01
  0.0000000E+00
  0.1000000E-01
  0.2000000E-01
  0.3000000E-01
  0.0000000E+00
  0.1000000E-01
  0.2000000E-01
  0.3000000E-01
  0.0000000E+00
  0.1000000E-01
  0.2000000E-01
  0.3000000E-01
  0.0000000E+00
  0.1000000E-01
  0.2000000E-01
  0.3000000E-01
  0.0000000E+00
  0.1000000E-01
  0.2000000E-01
  0.3000000E-01
  0.0000000E+00
  0.1000000E-01
  0.2000000E-01
  0.3000000E-01
  0.0000000E+00
  0.1000000E-01
  0.2000000E-01
  0.3000000E-01
  0.0000000E+00
  0.1000000E-01
  0.2000000E-01
  0.3000000E-01
  0.0000000E+00
  0.1000000E-01
  0.2000000E-01
  0.3000000E-01
  0.0000000E+00
  0.1000000E-01
  0.2000000E-01
  0.3000000E-01
  0.0000000E+00
  0.1000000E-01
  0.2000000E-01
  0.3000000E-01
  0.0000000E+00
  0.1000000E-01
  0.2000000E-01
  0.3000000E-01
  0.0000000E+00
  0.1000000E-01
  0.2000000E-01
  0.3000000E-01
  0.0000000E+00
  0.1000000E-01
  0.2000000E-01
  0.3000000E-01
  0.0000000E+00
  0.1000000E-01
  0.2000000E-01
  0.3000000E-01
  0.0000000E+00
  0.1000000E-01
  0.2000000E-01
  0.3000000E-01
  0.0000000E+00
  0.1000000E-01
  0.2000000E-01
  0.3000000E-01
  0.0000000E+00
  0.1000000E-01
  0.2000000E-01
  0.3000000E-01
  0.0000000E+00
  0.1000000E-01
  0.2000000E-01
  0.3000000E-01
  0.0000000E+00
  0.1000000E-01
  0.2000000E-01
  0.3000000E-01
  0.0000000E+00
  0.1000000E-01
  0.2000000E-01
  0.3000000E-01
  0.0000000E+00
  0.1000000E-01
  0.2000000E-01
  0.3000000E-01
  0.0000000E+00
  0.1000000E-01
  0.2000000E-01
  0.3000000E-01
  0.0000000E+00
  0.1000000E-01
  0.2000000E-01
  0.3000000E-01
  0.0000000E+00
  0.1000000E-01
  0.2000000E-01
  0.3000000E-01
  0.0000000E+00
  0.1000000E-01
  0.2000000E-01
  0.3000000E-01
  0.0000000E+00
  0.1000000E-01
  0.2000000E-01
  0.3000000E-01
  0.0000000E+00
  0.1000000E-01
  0.2000000E-01
  0.3000000E-01
  0.0000000E+00
  0.1000000E-01
  0.2000000E-01
  0.3000000E-01
  0.0000000E+00
  0.1000000E-01
  0.2000000E-01
  0.3000000E-01
  0.0000000E+00
  0.1000000E-01
  0.2000000E-01
  0.3000000E-01
  0.0000000E+00
  0.1000000E-01
  0.2000000E-01
  0.3000000E-01
  0.0000000E+00
  0.1000000E-01
  0.2000000E-01
  0.3000000E-01
  0.0000000E+00
  0.1000000E-01
  0.2000000E-01
  0.3000000E-01
  0.0000000E+00
  0.1000000E-01
  0.2000000E-01
  0.3000000E-01
  0.0000000E+00
  0.1000000E-01
  0.2000000E-01
  0.3000000E-01
  0.0000000E+00
  0.1000000E-01
  0.2000000E-01
  0.3000000E-01
  0.0000000E+00
  0.1000000E-01
  0.2000000E-01
  0.3000000E-01
  0.0000000E+00
  0.1000000E-01
  0.2000000E-01
  0.3000000E-01
  0.0000000E+00
  0.1000000E-01
  0.2000000E-01
  0.3000000E-01
  0.0000000E+00
  0.1000000E-01
  0.2000000E-01
  0.3000000E-01
  0.0000000E+00
  0.1000000E-01
  0.2000000E-01
  0.3000000E-01
  0.0000000E+00
  0.1000000E-01
  0.2000000E-01
  0.3000000E-01
  0.0000000E+00
  0.1000000E-01
  0.2000000E-01
  0.3000000E-01
  0.0000000E+00
  0.1000000E-01
  0.2000000E-01
  0.3000000E-01
  0.0000000E+00
  0.1000000E-01
  0.2000000E-01
  0.3000000E-01
  0.0000000E+00
  0.1000000E-01
  0.2000000E-01
  0.3000000E-01
  0.0000000E+00
  0.1000000E-01
  0.2000000E-01
  0.3000000E-01
  0.0000000E+00
  0.1000000E-01
  0.2000000E-01
  0.3000000E-01
  0.0000000E+00
  0.1000000E-01
  0.2000000E-01
  0.3000000E-01
  0.0000000E+00
  0.1000000E-01
  0.2000000E-01
  0.3000000E-01
  0.0000000E+00
  0.1000000E-01
  0.2000000E-01
  0.3000000E-01
  0.0000000E+00
  0.1000000E-01
  0.2000000E-01
  0.3000000E-01
  0.0000000E+00
  0.1000000E-01
  0.2000000E-01
  0.3000000E-01
  0.0000000E+00
  0.1000000E-01
  0.2000000E-01
  0.3000000E-01
  0.0000000E+00
  0.1000000E-01
  0.2000000E-01
  0.3000000E-01
  0.0000000E+00
  0.1000000E-01
  0.2000000E-01
  0.3000000E-01
  0.0000000E+00
  0.1000000E-01
  0.2000000E-01
  0.3000000E-01
  0.0000000E+00
  0.1000000E-01
  0.2000000E-01
  0.3000000E-01
  0.0000000E+00
  0.1000000E-01
  0.2000000E-01
  0.3000000E-01
  0.0000000E+00
  0.1000000E-01
  0.2000000E-01
  0.3000000E-01
  0.0000000E+00
  0.1000000E-01
  0.2000000E-01
  0.3000000E-01
  0.0000000E+00
  0.1000000E-01
  0.2000000E-01
  0.3000000E-01
  0.0000000E+00
  0.1000000E-01
  0.2000000E-01
  0.3000000E-01
  0.0000000E+00
  0.1000000E-01
  0.2000000E-01
  0.3000000E-01
  0.0000000E+00
  0.1000000E-01
  0.2000000E-01
  0.3000000E-01
  0.0000000E+00
  0.1000000E-01
  0.2000000E-01
  0.3000000E-01
  0.0000000E+00
  0.1000000E-01
  0.2000000E-01
  0.3000000E-01
  0.0000000E+00
  0.1000000E-01
  0.2000000E-01
  0.3000000E-01
  0.0000000E+00
  0.1000000E-01
  0.2000000E-01
  0.3000000E-01
  0.0000000E+00
  0.1000000E-01
  0.2000000E-01
  0.3000000E-01
  0.0000000E+00
  0.1000000E-01
  0.2000000E-01
  0.3000000E-01
  0.0000000E+00
  0.1000000E-01
  0.2000000E-01
  0.3000000E-01
  0.0000000E+00
  0.1000000E-01
  0.2000000E-01
  0.3000000E-01
  0.0000000E+00
  0.1000000E-01
  0.2000000E-01
  0.3000000E-01
  0.0000000E+00
  0.1000000E-01
  0.2000000E-01
  0.3000000E-01
  0.0000000E+00
  0.1000000E-01
  0.2000000E-01
  0.3000000E-01
  0.0000000E+00
  0.1000000E-01
  0.2000000E-01
  0.3000000E-01
  0.0000000E+00
  0.1000000E-01
  0.2000000E-01
  0.3000000E-01
  0.0000000E+00
  0.1000000E-01
  0.2000000E-01
  0.3000000E-01
  0.0000000E+00
  0.1000000E-01
  0.2000000E-01
  0.3000000E-01
  0.0000000E+00
  0.1000000E-01
  0.2000000E-01
  0.3000000E-01
  0.0000000E+00
  0.1000000E-01
  0.2000000E-01
  0.3000000E-01
  0.0000000E+00
  0.1000000E-01
  0.2000000E-01
  0.3000000E-01
  0.8172106E+04
  0.6273026E+04
  0.7693927E+04
  0.8181846E+04
  0.6296740E+04
  0.7704078E+04
  0.8123284E+04
  0.6251993E+04
  0.7640164E+04
  0.8077454E+04
  0.6216395E+04
  0.7595684E+04
  0.8027394E+04
  0.6182512E+04
  0.7554728E+04
  0.7986019E+04
  0.6163873E+04
  0.7531269E+04
  0.7938667E+04
  0.6146726E+04
  0.7503677E+04
  0.7879097E+04
  0.6116668E+04
  0.7461322E+04
  0.7831433E+04
  0.6098835E+04
  0.7435373E+04
  0.7858006E+04
  0.6137208E+04
  0.7480600E+04
  0.7775818E+04
  0.6081774E+04
  0.7400099E+04
  0.7646374E+04
  0.5979869E+04
  0.7273529E+04
  0.7502811E+04
  0.5866609E+04
  0.7139468E+04
  0.7349609E+04
  0.5747062E+04
  0.7002442E+04
  0.7194105E+04
  0.5624171E+04
  0.6862746E+04
  0.7016093E+04
  0.5484042E+04
  0.6702130E+04
  0.6835937E+04
  0.5338731E+04
  0.6535431E+04
  0.6654106E+04
  0.5189002E+04
  0.6362193E+04
  0.6477121E+04
  0.5043596E+04
  0.6195257E+04
  0.6304537E+04
  0.4900276E+04
  0.6032439E+04
  0.6120197E+04
  0.4752292E+04
  0.5857547E+04
  0.5939279E+04
  0.4601777E+04
  0.5678832E+04
  0.5747529E+04
  0.4448459E+04
  0.5493705E+04
  0.5555556E+04
  0.4295019E+04
  0.5308559E+04
  0.5369173E+04
  0.4144950E+04
  0.5128612E+04
  0.5175400E+04
  0.3991236E+04
  0.4942750E+04
  0.4989080E+04
  0.3842540E+04
  0.4764641E+04
  0.4836936E+04
  0.3716132E+04
  0.4623093E+04
  0.4636977E+04
  0.3563631E+04
  0.4439225E+04
  0.4436042E+04
  0.3415040E+04
  0.4252224E+04
  0.4233916E+04
  0.3260920E+04
  0.4061269E+04
  0.4037666E+04
  0.3109160E+04
  0.3874896E+04
  0.3843628E+04
  0.2957222E+04
  0.3690276E+04
  0.3654774E+04
  0.2810575E+04
  0.3510762E+04
  0.3455550E+04
  0.2656649E+04
  0.3320430E+04
  0.3271357E+04
  0.2512640E+04
  0.3145812E+04
  0.3091108E+04
  0.2371071E+04
  0.2973079E+04
  0.2918350E+04
  0.2236695E+04
  0.2808261E+04
  0.2737783E+04
  0.2094920E+04
  0.2636398E+04
  0.2573305E+04
  0.1964743E+04
  0.2477902E+04
  0.2398707E+04
  0.1828996E+04
  0.2311045E+04
  0.2249613E+04
  0.1716470E+04
  0.2170335E+04
  0.2072467E+04
  0.1575502E+04
  0.1998608E+04
  0.1936263E+04
  0.1471647E+04
  0.1869540E+04
  0.1774180E+04
  0.1342291E+04
  0.1714179E+04
  0.1664107E+04
  0.1260319E+04
  0.1609277E+04
  0.1492890E+04
  0.1119172E+04
  0.1444131E+04
  0.1443246E+04
  0.1090541E+04
  0.1397795E+04
  0.1152150E+04
  0.8292990E+03
  0.1113704E+04
  0.1214665E+04
  0.9222066E+03
  0.1178247E+04
  0.1149209E+04
  0.8647162E+03
  0.1114234E+04
  0.1127076E+04
  0.8462775E+03
  0.1091321E+04
  0.1122774E+04
  0.8402413E+03
  0.1084045E+04
  0.1125835E+04
  0.8364314E+03
  0.1082601E+04
  0.1132432E+04
  0.8333982E+03
  0.1083343E+04
  0.1145152E+04
  0.8327751E+03
  0.1088423E+04
  0.1164558E+04
  0.8356706E+03
  0.1098613E+04
  0.1194066E+04
  0.8441426E+03
  0.1116114E+04
  0.1231738E+04
  0.8594968E+03
  0.1139918E+04
  0.1275648E+04
  0.8822133E+03
  0.1169643E+04
  0.1336671E+04
  0.9180424E+03
  0.1214684E+04
  0.1391030E+04
  0.9546094E+03
  0.1256179E+04
  0.1449700E+04
  0.9964366E+03
  0.1303544E+04
  0.1511995E+04
  0.1043361E+04
  0.1355420E+04
  0.1572458E+04
  0.1095256E+04
  0.1411142E+04
  0.1642056E+04
  0.1160667E+04
  0.1479949E+04
  0.1769790E+04
  0.1275083E+04
  0.1594593E+04
  0.1823767E+04
  0.1337880E+04
  0.1651325E+04
  0.1811994E+04
  0.1343636E+04
  0.1651754E+04
  0.1827798E+04
  0.1373782E+04
  0.1671566E+04
  0.1837629E+04
  0.1401172E+04
  0.1683044E+04
  0.1838086E+04
  0.1425556E+04
  0.1685566E+04
  0.1843316E+04
  0.1464308E+04
  0.1701837E+04
  0.1842119E+04
  0.1502829E+04
  0.1718918E+04
  0.1866794E+04
  0.1566991E+04
  0.1762204E+04
  0.1845798E+04
  0.1584469E+04
  0.1760033E+04
  0.1843147E+04
  0.1618365E+04
  0.1774071E+04
  0.1851388E+04
  0.1651605E+04
  0.1793778E+04
  0.1898943E+04
  0.1721654E+04
  0.1849310E+04
  0.1864990E+04
  0.1710319E+04
  0.1821538E+04
  0.1871293E+04
  0.1735543E+04
  0.1831529E+04
  0.1880365E+04
  0.1762288E+04
  0.1843941E+04
  0.1888425E+04
  0.1785795E+04
  0.1855273E+04
  0.1881637E+04
  0.1795342E+04
  0.1851735E+04
  0.1861920E+04
  0.1791453E+04
  0.1834695E+04
  0.1781281E+04
  0.1725043E+04
  0.1755954E+04
  0.1740079E+04
  0.1696244E+04
  0.1716002E+04
  0.1693697E+04
  0.1657958E+04
  0.1670603E+04
  0.8172106E+04
  0.6273026E+04
  0.7693927E+04
  0.8181846E+04
  0.6296740E+04
  0.7704078E+04
  0.8123284E+04
  0.6251993E+04
  0.7640164E+04
  0.8077454E+04
  0.6216395E+04
  0.7595684E+04
  0.8027394E+04
  0.6182512E+04
  0.7554728E+04
  0.7986019E+04
  0.6163873E+04
  0.7531269E+04
  0.7938667E+04
  0.6146726E+04
  0.7503677E+04
  0.7879097E+04
  0.6116668E+04
  0.7461322E+04
  0.7831433E+04
  0.6098835E+04
  0.7435373E+04
  0.7858006E+04
  0.6137208E+04
  0.7480600E+04
  0.7775818E+04
  0.6081774E+04
  0.7400099E+04
  0.7646374E+04
  0.5979869E+04
  0.7273529E+04
  0.7502811E+04
  0.5866609E+04
  0.7139468E+04
  0.7349609E+04
  0.5747062E+04
  0.7002442E+04
  0.7194105E+04
  0.5624171E+04
  0.6862746E+04
  0.7016093E+04
  0.5484042E+04
  0.6702130E+04
  0.6835937E+04
  0.5338731E+04
  0.6535431E+04
  0.6654106E+04
  0.5189002E+04
  0.6362193E+04
  0.6477121E+04
  0.5043596E+04
  0.6195257E+04
  0.6304537E+04
  0.4900276E+04
  0.6032439E+04
  0.6120197E+04
  0.4752292E+04
  0.5857547E+04
  0.5939279E+04
  0.4601777E+04
  0.5678832E+04
  0.5747529E+04
  0.4448459E+04
  0.5493705E+04
  0.5555556E+04
  0.4295019E+04
  0.5308559E+04
  0.5369173E+04
  0.4144950E+04
  0.5128612E+04
  0.5175400E+04
  0.3991236E+04
  0.4942750E+04
  0.4989080E+04
  0.3842540E+04
  0.4764641E+04
  0.4836936E+04
  0.3716132E+04
  0.4623093E+04
  0.4636977E+04
  0.3563631E+04
  0.4439225E+04
  0.4436042E+04
  0.3415040E+04
  0.4252224E+04
  0.4233916E+04
  0.3260920E+04
  0.4061269E+04
  0.4037666E+04
  0.3109160E+04
  0.3874896E+04
  0.3843628E+04
  0.2957222E+04
  0.3690276E+04
  0.3654774E+04
  0.2810575E+04
  0.3510762E+04
  0.3455550E+04
  0.2656649E+04
  0.3320430E+04
  0.3271357E+04
  0.2512640E+04
  0.3145812E+04
  0.3091108E+04
  0.2371071E+04
  0.2973079E+04
  0.2918350E+04
  0.2236695E+04
  0.2808261E+04
  0.2737783E+04
  0.2094920E+04
  0.2636398E+04
  0.2573305E+04
  0.1964743E+04
  0.2477902E+04
  0.2398707E+04
  0.1828996E+04
  0.2311045E+04
  0.2249613E+04
  0.1716470E+04
  0.2170335E+04
  0.2072467E+04
  0.1575502E+04
  0.1998608E+04
  0.1936263E+04
  0.1471647E+04
  0.1869540E+04
  0.1774180E+04
  0.1342291E+04
  0.1714179E+04
  0.1664107E+04
  0.1260319E+04
  0.1609277E+04
  0.1492890E+04
  0.1119172E+04
  0.1444131E+04
  0.1443246E+04
  0.1090541E+04
  0.1397795E+04
  0.1152150E+04
  0.8292990E+03
  0.1113704E+04
  0.1214665E+04
  0.9222066E+03
  0.1178247E+04
  0.1149209E+04
  0.8647162E+03
  0.1114234E+04
  0.1127076E+04
  0.8462775E+03
  0.1091321E+04
  0.1122774E+04
  0.8402413E+03
  0.1084045E+04
  0.1125835E+04
  0.8364314E+03
  0.1082601E+04
  0.1132432E+04
  0.8333982E+03
  0.1083343E+04
  0.1145152E+04
  0.8327751E+03
  0.1088423E+04
  0.1164558E+04
  0.8356706E+03
  0.1098613E+04
  0.1194066E+04
  0.8441426E+03
  0.1116114E+04
  0.1231738E+04
  0.8594968E+03
  0.1139918E+04
  0.1275648E+04
  0.8822133E+03
  0.1169643E+04
  0.1336671E+04
  0.9180424E+03
  0.1214684E+04
  0.1391030E+04
  0.9546094E+03
  0.1256179E+04
  0.1449700E+04
  0.9964366E+03
  0.1303544E+04
  0.1511995E+04
  0.1043361E+04
  0.1355420E+04
  0.1572458E+04
  0.1095256E+04
  0.1411142E+04
  0.1642056E+04
  0.1160667E+04
  0.1479949E+04
  0.1769790E+04
  0.1275083E+04
  0.1594593E+04
  0.1823767E+04
  0.1337880E+04
  0.1651325E+04
  0.1811994E+04
  0.1343636E+04
  0.1651754E+04
  0.1827798E+04
  0.1373782E+04
  0.1671566E+04
  0.1837629E+04
  0.1401172E+04
  0.1683044E+04
  0.1838086E+04
  0.1425556E+04
  0.1685566E+04
  0.1843316E+04
  0.1464308E+04
  0.1701837E+04
  0.1842119E+04
  0.1502829E+04
  0.1718918E+04
  0.1866794E+04
  0.1566991E+04
  0.1762204E+04
  0.1845798E+04
  0.1584469E+04
  0.1760033E+04
  0.1843147E+04
  0.1618365E+04
  0.1774071E+04
  0.1851388E+04
  0.1651605E+04
  0.1793778E+04
  0.1898943E+04
  0.1721654E+04
  0.1849310E+04
  0.1864990E+04
  0.1710319E+04
  0.1821538E+04
  0.1871293E+04
  0.1735543E+04
  0.1831529E+04
  0.1880365E+04
  0.1762288E+04
  0.1843941E+04
  0.1888425E+04
  0.1785795E+04
  0.1855273E+04
  0.1881637E+04
  0.1795342E+04
  0.1851735E+04
  0.1861920E+04
  0.1791453E+04
  0.1834695E+04
  0.1781281E+04
  0.1725043E+04
  0.1755954E+04
  0.1740079E+04
  0.1696244E+04
  0.1716002E+04
  0.1693697E+04
  0.1657958E+04
  0.1670603E+04
  0.1928063E+03
  0.1928063E+03
  0.1928063E+03
  0.1928063E+03
  0.1928063E+03
  0.1928063E+03
  0.1928063E+03
  0.1928063E+03
  0.1928063E+03
  0.1928063E+03
  0.1928063E+03
  0.1928063E+03
  0.1928063E+03
  0.1928063E+03
  0.1928063E+03
  0.1928063E+03
  0.1928063E+03
  0.1928063E+03
  0.1928063E+03
  0.1928063E+03
  0.1928063E+03
  0.1928063E+03
  0.1928063E+03
  0.1928063E+03
  0.1928063E+03
  0.1928063E+03
  0.1928063E+03
  0.1928063E+03
  0.1928063E+03
  0.1928063E+03
  0.1928063E+03
  0.1928063E+03
  0.1928063E+03
  0.1928063E+03
  0.1928063E+03
  0.1928063E+03
  0.1928063E+03
  0.1928063E+03
  0.1928063E+03
  0.1928063E+03
  0.1928063E+03
  0.1928063E+03
  0.1928063E+03
  0.1928063E+03
  0.1928063E+03
  0.1928063E+03
  0.1928063E+03
  0.1928063E+03
  0.1928063E+03
  0.1928063E+03
  0.1928063E+03
  0.1928063E+03
  0.1928063E+03
  0.1928063E+03
  0.1928063E+03
  0.1928063E+03
  0.1928063E+03
  0.1928063E+03
  0.1928063E+03
  0.1928063E+03
  0.1928063E+03
  0.1928063E+03
  0.1928063E+03
  0.1928063E+03
  0.1928063E+03
  0.1928063E+03
  0.1928063E+03
  0.1928063E+03
  0.1928063E+03
  0.1928063E+03
  0.1928063E+03
  0.1928063E+03
  0.1928063E+03
  0.1928063E+03
  0.1928063E+03
  0.1928063E+03
  0.1928063E+03
  0.1928063E+03
  0.1928063E+03
  0.1928063E+03
  0.1928063E+03
  0.1928063E+03
  0.1928063E+03
  0.1928063E+03
  0.1928063E+03
  0.1928063E+03
  0.1928063E+03
  0.1928063E+03
  0.1928063E+03
  0.1928063E+03
  0.1928063E+03
  0.1928063E+03
  0.1928063E+03
  0.1928063E+03
  0.1928063E+03
  0.1928063E+03
  0.1928063E+03
  0.1928063E+03
  0.1928063E+03
  0.1928063E+03
  0.1928063E+03
  0.1928063E+03
  0.1928063E+03
  0.1928063E+03
  0.1928063E+03
  0.1928063E+03
  0.1928063E+03
  0.1928063E+03
  0.1928063E+03
  0.1928063E+03
  0.1928063E+03
  0.1928063E+03
  0.1928063E+03
  0.1928063E+03
  0.1928063E+03
  0.1928063E+03
  0.1928063E+03
  0.1928063E+03
  0.1928063E+03
  0.1928063E+03
  0.1928063E+03
  0.1928063E+03
  0.1928063E+03
  0.1928063E+03
  0.1928063E+03
  0.1928063E+03
  0.1928063E+03
  0.1928063E+03
  0.1928063E+03
  0.1928063E+03
  0.1928063E+03
  0.1928063E+03
  0.1928063E+03
  0.1928063E+03
  0.1928063E+03
  0.1928063E+03
  0.1928063E+03
  0.1928063E+03
  0.1928063E+03
  0.1928063E+03
  0.1928063E+03
  0.1928063E+03
  0.1928063E+03
  0.1928063E+03
  0.1928063E+03
  0.1928063E+03
  0.1928063E+03
  0.1928063E+03
  0.1928063E+03
  0.1928063E+03
  0.1928063E+03
  0.1928063E+03
  0.1928063E+03
  0.1928063E+03
  0.1928063E+03
  0.1928063E+03
  0.1928063E+03
  0.1928063E+03
  0.1928063E+03
  0.1928063E+03
  0.1928063E+03
  0.1928063E+03
  0.1928063E+03
  0.1928063E+03
  0.1928063E+03
  0.1928063E+03
  0.1928063E+03
  0.1928063E+03
  0.1928063E+03
  0.1928063E+03
  0.1928063E+03
  0.1928063E+03
  0.1928063E+03
  0.1928063E+03
  0.1928063E+03
  0.1928063E+03
  0.1928063E+03
  0.1928063E+03
  0.1928063E+03
  0.1928063E+03
  0.1928063E+03
  0.1928063E+03
  0.1928063E+03
  0.1928063E+03
  0.1928063E+03
  0.1928063E+03
  0.1928063E+03
  0.1928063E+03
  0.1928063E+03
  0.1928063E+03
  0.1928063E+03
  0.1928063E+03
  0.1928063E+03
  0.1928063E+03
  0.1928063E+03
  0.1928063E+03
  0.1928063E+03
  0.1928063E+03
  0.1928063E+03
  0.1928063E+03
  0.1928063E+03
  0.1928063E+03
  0.1928063E+03
  0.1928063E+03
  0.1928063E+03
  0.1928063E+03
  0.1928063E+03
  0.1928063E+03
  0.1928063E+03
  0.1928063E+03
  0.1928063E+03
  0.1928063E+03
  0.1928063E+03
  0.1928063E+03
  0.1928063E+03
  0.1928063E+03
  0.1928063E+03
  0.1928063E+03
  0.1928063E+03
  0.1928063E+03
  0.1928063E+03
  0.1928063E+03
  0.1928063E+03
  0.1928063E+03
  0.1928063E+03
  0.1928063E+03
  0.1928063E+03
  0.1928063E+03
  0.1928063E+03
  0.1928063E+03
  0.1928063E+03
  0.1928063E+03
  0.1928063E+03
  0.1928063E+03
  0.1928063E+03
  0.1928063E+03
  0.1928063E+03
  0.1928063E+03
  0.1928063E+03
  0.1928063E+03
  0.1928063E+03
  0.1928063E+03
  0.1928063E+03
  0.1928063E+03
  0.1928063E+03
  0.1928063E+03
  0.1928063E+03
  0.1928063E+03
  0.1928063E+03
  0.1928063E+03
  0.1928063E+03
  0.1928063E+03
  0.1928063E+03
  0.1928063E+03
  0.1928063E+03
  0.1928063E+03
  0.1928063E+03
  0.1928063E+03
  0.1928063E+03
  0.1928063E+03
  0.1928063E+03
  0.1928063E+03
  0.1928063E+03
  0.1928063E+03
  0.7979299E+04