 TITLE = "VolumeData"
VARIABLES = "x" "y" "z"
  "rho"
  "ux"
  "uy"
  "uz"
  "p"
  "Temp"
  "Enthalpy"
 ZONE T= SingleC DATAPACKING=Block, ZONETYPE=FEBRICK Nodes=11644 Elements=8400
 VarLocation=([4-10]=CellCentered)
 -0.5000000E+02
 -0.4984586E+02
 -0.5000000E+02
 -0.4984585E+02
 -0.4029800E+02
 -0.4017377E+02
 -0.4029800E+02
 -0.4017376E+02
 -0.3259478E+02
 -0.3249430E+02
 -0.3259478E+02
 -0.3249429E+02
 -0.2645143E+02
 -0.2636989E+02
 -0.2645143E+02
 -0.2636988E+02
 -0.2153477E+02
 -0.2146838E+02
 -0.2153477E+02
 -0.2146838E+02
 -0.1758872E+02
 -0.1753450E+02
 -0.1758872E+02
 -0.1753449E+02
 -0.1441449E+02
 -0.1437005E+02
 -0.1441449E+02
 -0.1437005E+02
 -0.1185646E+02
 -0.1181991E+02
 -0.1185646E+02
 -0.1181991E+02
 -0.9791987E+01
 -0.9761801E+01
 -0.9791987E+01
 -0.9761799E+01
 -0.8123863E+01
 -0.8098820E+01
 -0.8123863E+01
 -0.8098818E+01
 -0.6774705E+01
 -0.6753821E+01
 -0.6774705E+01
 -0.6753819E+01
 -0.5682679E+01
 -0.5665160E+01
 -0.5682679E+01
 -0.5665159E+01
 -0.4798223E+01
 -0.4783432E+01
 -0.4798223E+01
 -0.4783431E+01
 -0.4081521E+01
 -0.4068939E+01
 -0.4081521E+01
 -0.4068938E+01
 -0.3500515E+01
 -0.3489724E+01
 -0.3500515E+01
 -0.3489723E+01
 -0.3029358E+01
 -0.3020019E+01
 -0.3029358E+01
 -0.3020018E+01
 -0.2647176E+01
 -0.2639015E+01
 -0.2647176E+01
 -0.2639015E+01
 -0.2337100E+01
 -0.2329895E+01
 -0.2337100E+01
 -0.2329894E+01
 -0.2085480E+01
 -0.2079051E+01
 -0.2085480E+01
 -0.2079051E+01
 -0.1881267E+01
 -0.1875468E+01
 -0.1881267E+01
 -0.1875467E+01
 -0.1715510E+01
 -0.1710222E+01
 -0.1715510E+01
 -0.1710221E+01
 -0.1580954E+01
 -0.1576080E+01
 -0.1580954E+01
 -0.1576080E+01
 -0.1471718E+01
 -0.1467181E+01
 -0.1471718E+01
 -0.1467180E+01
 -0.1383031E+01
 -0.1378767E+01
 -0.1383031E+01
 -0.1378767E+01
 -0.1311024E+01
 -0.1306983E+01
 -0.1311024E+01
 -0.1306982E+01
 -0.1252558E+01
 -0.1248697E+01
 -0.1252558E+01
 -0.1248697E+01
 -0.1205085E+01
 -0.1201370E+01
 -0.1205085E+01
 -0.1201370E+01
 -0.1166536E+01
 -0.1162940E+01
 -0.1166536E+01
 -0.1162940E+01
 -0.1135234E+01
 -0.1131734E+01
 -0.1135234E+01
 -0.1131734E+01
 -0.1109816E+01
 -0.1106394E+01
 -0.1109816E+01
 -0.1106394E+01
 -0.1089175E+01
 -0.1085817E+01
 -0.1089175E+01
 -0.1085817E+01
 -0.1072413E+01
 -0.1069107E+01
 -0.1072413E+01
 -0.1069107E+01
 -0.1058801E+01
 -0.1055537E+01
 -0.1058801E+01
 -0.1055537E+01
 -0.1047748E+01
 -0.1044518E+01
 -0.1047748E+01
 -0.1044517E+01
 -0.1038771E+01
 -0.1035569E+01
 -0.1038771E+01
 -0.1035569E+01
 -0.1031482E+01
 -0.1028302E+01
 -0.1031482E+01
 -0.1028302E+01
 -0.1025562E+01
 -0.1022401E+01
 -0.1025562E+01
 -0.1022400E+01
 -0.1020755E+01
 -0.1017608E+01
 -0.1020755E+01
 -0.1017608E+01
 -0.1016851E+01
 -0.1013716E+01
 -0.1016851E+01
 -0.1013716E+01
 -0.1013680E+01
 -0.1010556E+01
 -0.1013680E+01
 -0.1010555E+01
 -0.1011106E+01
 -0.1007989E+01
 -0.1011106E+01
 -0.1007988E+01
 -0.1009015E+01
 -0.1005904E+01
 -0.1009015E+01
 -0.1005904E+01
 -0.1007317E+01
 -0.1004212E+01
 -0.1007317E+01
 -0.1004211E+01
 -0.1005938E+01
 -0.1002837E+01
 -0.1005938E+01
 -0.1002837E+01
 -0.1004818E+01
 -0.1001721E+01
 -0.1004818E+01
 -0.1001720E+01
 -0.1003909E+01
 -0.1000814E+01
 -0.1003909E+01
 -0.1000814E+01
 -0.1003170E+01
 -0.1000078E+01
 -0.1003170E+01
 -0.1000077E+01
 -0.1002571E+01
 -0.9994799E+00
 -0.1002571E+01
 -0.9994795E+00
 -0.1002083E+01
 -0.9989943E+00
 -0.1002083E+01
 -0.9989940E+00
 -0.1001688E+01
 -0.9985999E+00
 -0.1001688E+01
 -0.9985996E+00
 -0.1001367E+01
 -0.9982798E+00
 -0.1001367E+01
 -0.9982795E+00
 -0.1001106E+01
 -0.9980197E+00
 -0.1001106E+01
 -0.9980194E+00
 -0.1000894E+01
 -0.9978085E+00
 -0.1000894E+01
 -0.9978082E+00
 -0.1000722E+01
 -0.9976370E+00
 -0.1000722E+01
 -0.9976367E+00
 -0.1000582E+01
 -0.9974977E+00
 -0.1000582E+01
 -0.9974974E+00
 -0.1000469E+01
 -0.9973846E+00
 -0.1000469E+01
 -0.9973843E+00
 -0.1000377E+01
 -0.9972928E+00
 -0.1000377E+01
 -0.9972925E+00
 -0.1000302E+01
 -0.9972182E+00
 -0.1000302E+01
 -0.9972179E+00
 -0.1000241E+01
 -0.9971576E+00
 -0.1000241E+01
 -0.9971573E+00
 -0.1000192E+01
 -0.9971084E+00
 -0.1000192E+01
 -0.9971081E+00
 -0.1000152E+01
 -0.9970685E+00
 -0.1000152E+01
 -0.9970682E+00
 -0.1000119E+01
 -0.9970360E+00
 -0.1000119E+01
 -0.9970357E+00
 -0.1000093E+01
 -0.9970096E+00
 -0.1000093E+01
 -0.9970093E+00
 -0.1000071E+01
 -0.9969883E+00
 -0.1000071E+01
 -0.9969879E+00
 -0.1000054E+01
 -0.9969709E+00
 -0.1000054E+01
 -0.9969706E+00
 -0.1000040E+01
 -0.9969568E+00
 -0.1000040E+01
 -0.9969565E+00
 -0.1000028E+01
 -0.9969453E+00
 -0.1000028E+01
 -0.9969450E+00
 -0.1000019E+01
 -0.9969360E+00
 -0.1000019E+01
 -0.9969357E+00
 -0.1000011E+01
 -0.9969285E+00
 -0.1000011E+01
 -0.9969282E+00
 -0.1000005E+01
 -0.9969223E+00
 -0.1000005E+01
 -0.9969220E+00
 -0.1000000E+01
 -0.9969173E+00
 -0.1000000E+01
 -0.9969170E+00
 -0.5000000E+02
 -0.4984585E+02
 -0.4029800E+02
 -0.4017376E+02
 -0.3259478E+02
 -0.3249429E+02
 -0.2645143E+02
 -0.2636988E+02
 -0.2153477E+02
 -0.2146838E+02
 -0.1758872E+02
 -0.1753449E+02
 -0.1441449E+02
 -0.1437005E+02
 -0.1185646E+02
 -0.1181991E+02
 -0.9791987E+01
 -0.9761799E+01
 -0.8123863E+01
 -0.8098818E+01
 -0.6774705E+01
 -0.6753819E+01
 -0.5682679E+01
 -0.5665159E+01
 -0.4798223E+01
 -0.4783431E+01
 -0.4081521E+01
 -0.4068938E+01
 -0.3500515E+01
 -0.3489723E+01
 -0.3029358E+01
 -0.3020018E+01
 -0.2647176E+01
 -0.2639015E+01
 -0.2337100E+01
 -0.2329894E+01
 -0.2085480E+01
 -0.2079051E+01
 -0.1881267E+01
 -0.1875467E+01
 -0.1715510E+01
 -0.1710221E+01
 -0.1580954E+01
 -0.1576080E+01
 -0.1471718E+01
 -0.1467180E+01
 -0.1383031E+01
 -0.1378767E+01
 -0.1311024E+01
 -0.1306982E+01
 -0.1252558E+01
 -0.1248697E+01
 -0.1205085E+01
 -0.1201370E+01
 -0.1166536E+01
 -0.1162940E+01
 -0.1135234E+01
 -0.1131734E+01
 -0.1109816E+01
 -0.1106394E+01
 -0.1089175E+01
 -0.1085817E+01
 -0.1072413E+01
 -0.1069107E+01
 -0.1058801E+01
 -0.1055537E+01
 -0.1047748E+01
 -0.1044517E+01
 -0.1038771E+01
 -0.1035569E+01
 -0.1031482E+01
 -0.1028302E+01
 -0.1025562E+01
 -0.1022400E+01
 -0.1020755E+01
 -0.1017608E+01
 -0.1016851E+01
 -0.1013716E+01
 -0.1013680E+01
 -0.1010555E+01
 -0.1011106E+01
 -0.1007988E+01
 -0.1009015E+01
 -0.1005904E+01
 -0.1007317E+01
 -0.1004211E+01
 -0.1005938E+01
 -0.1002837E+01
 -0.1004818E+01
 -0.1001720E+01
 -0.1003909E+01
 -0.1000814E+01
 -0.1003170E+01
 -0.1000077E+01
 -0.1002571E+01
 -0.9994795E+00
 -0.1002083E+01
 -0.9989940E+00
 -0.1001688E+01
 -0.9985996E+00
 -0.1001367E+01
 -0.9982795E+00
 -0.1001106E+01
 -0.9980194E+00
 -0.1000894E+01
 -0.9978082E+00
 -0.1000722E+01
 -0.9976367E+00
 -0.1000582E+01
 -0.9974974E+00
 -0.1000469E+01
 -0.9973843E+00
 -0.1000377E+01
 -0.9972925E+00
 -0.1000302E+01
 -0.9972178E+00
 -0.1000241E+01
 -0.9971573E+00
 -0.1000192E+01
 -0.9971081E+00
 -0.1000152E+01
 -0.9970681E+00
 -0.1000119E+01
 -0.9970357E+00
 -0.1000093E+01
 -0.9970093E+00
 -0.1000071E+01
 -0.9969879E+00
 -0.1000054E+01
 -0.9969705E+00
 -0.1000040E+01
 -0.9969565E+00
 -0.1000028E+01
 -0.9969450E+00
 -0.1000019E+01
 -0.9969357E+00
 -0.1000011E+01
 -0.9969281E+00
 -0.1000005E+01
 -0.9969220E+00
 -0.1000000E+01
 -0.9969170E+00
 -0.5000000E+02
 -0.4984587E+02
 -0.4029800E+02
 -0.4017377E+02
 -0.3259478E+02
 -0.3249430E+02
 -0.2645143E+02
 -0.2636989E+02
 -0.2153477E+02
 -0.2146838E+02
 -0.1758872E+02
 -0.1753450E+02
 -0.1441449E+02
 -0.1437005E+02
 -0.1185646E+02
 -0.1181991E+02
 -0.9791987E+01
 -0.9761802E+01
 -0.8123863E+01
 -0.8098820E+01
 -0.6774705E+01
 -0.6753821E+01
 -0.5682679E+01
 -0.5665160E+01
 -0.4798223E+01
 -0.4783432E+01
 -0.4081521E+01
 -0.4068939E+01
 -0.3500515E+01
 -0.3489724E+01
 -0.3029358E+01
 -0.3020019E+01
 -0.2647176E+01
 -0.2639015E+01
 -0.2337100E+01
 -0.2329895E+01
 -0.2085480E+01
 -0.2079051E+01
 -0.1881267E+01
 -0.1875468E+01
 -0.1715510E+01
 -0.1710221E+01
 -0.1580954E+01
 -0.1576080E+01
 -0.1471718E+01
 -0.1467180E+01
 -0.1383031E+01
 -0.1378767E+01
 -0.1311024E+01
 -0.1306982E+01
 -0.1252558E+01
 -0.1248697E+01
 -0.1205085E+01
 -0.1201370E+01
 -0.1166536E+01
 -0.1162940E+01
 -0.1135234E+01
 -0.1131734E+01
 -0.1109816E+01
 -0.1106394E+01
 -0.1089175E+01
 -0.1085817E+01
 -0.1072413E+01
 -0.1069107E+01
 -0.1058801E+01
 -0.1055537E+01
 -0.1047748E+01
 -0.1044517E+01
 -0.1038771E+01
 -0.1035569E+01
 -0.1031482E+01
 -0.1028302E+01
 -0.1025562E+01
 -0.1022400E+01
 -0.1020755E+01
 -0.1017608E+01
 -0.1016851E+01
 -0.1013716E+01
 -0.1013680E+01
 -0.1010555E+01
 -0.1011106E+01
 -0.1007988E+01
 -0.1009015E+01
 -0.1005904E+01
 -0.1007317E+01
 -0.1004211E+01
 -0.1005938E+01
 -0.1002837E+01
 -0.1004818E+01
 -0.1001720E+01
 -0.1003909E+01
 -0.1000814E+01
 -0.1003170E+01
 -0.1000077E+01
 -0.1002571E+01
 -0.9994795E+00
 -0.1002083E+01
 -0.9989940E+00
 -0.1001688E+01
 -0.9985996E+00
 -0.1001367E+01
 -0.9982795E+00
 -0.1001106E+01
 -0.9980194E+00
 -0.1000894E+01
 -0.9978082E+00
 -0.1000722E+01
 -0.9976367E+00
 -0.1000582E+01
 -0.9974974E+00
 -0.1000469E+01
 -0.9973843E+00
 -0.1000377E+01
 -0.9972925E+00
 -0.1000302E+01
 -0.9972178E+00
 -0.1000241E+01
 -0.9971573E+00
 -0.1000192E+01
 -0.9971081E+00
 -0.1000152E+01
 -0.9970681E+00
 -0.1000119E+01
 -0.9970357E+00
 -0.1000093E+01
 -0.9970093E+00
 -0.1000071E+01
 -0.9969879E+00
 -0.1000054E+01
 -0.9969705E+00
 -0.1000040E+01
 -0.9969565E+00
 -0.1000028E+01
 -0.9969450E+00
 -0.1000019E+01
 -0.9969357E+00
 -0.1000011E+01
 -0.9969281E+00
 -0.1000005E+01
 -0.9969220E+00
 -0.1000000E+01
 -0.9969170E+00
 -0.4938441E+02
 -0.4938441E+02
 -0.3980186E+02
 -0.3980186E+02
 -0.3219349E+02
 -0.3219349E+02
 -0.2612577E+02
 -0.2612577E+02
 -0.2126964E+02
 -0.2126964E+02
 -0.1737217E+02
 -0.1737217E+02
 -0.1423702E+02
 -0.1423702E+02
 -0.1171049E+02
 -0.1171049E+02
 -0.9671432E+01
 -0.9671432E+01
 -0.8023845E+01
 -0.8023845E+01
 -0.6691297E+01
 -0.6691298E+01
 -0.5612715E+01
 -0.5612715E+01
 -0.4739149E+01
 -0.4739149E+01
 -0.4031270E+01
 -0.4031270E+01
 -0.3457418E+01
 -0.3457418E+01
 -0.2992061E+01
 -0.2992061E+01
 -0.2614584E+01
 -0.2614585E+01
 -0.2308326E+01
 -0.2308326E+01
 -0.2059804E+01
 -0.2059804E+01
 -0.1858105E+01
 -0.1858106E+01
 -0.1694389E+01
 -0.1694389E+01
 -0.1561490E+01
 -0.1561490E+01
 -0.1453598E+01
 -0.1453598E+01
 -0.1366003E+01
 -0.1366003E+01
 -0.1294883E+01
 -0.1294883E+01
 -0.1237137E+01
 -0.1237137E+01
 -0.1190248E+01
 -0.1190248E+01
 -0.1152174E+01
 -0.1152174E+01
 -0.1121257E+01
 -0.1121258E+01
 -0.1096152E+01
 -0.1096152E+01
 -0.1075765E+01
 -0.1075765E+01
 -0.1059209E+01
 -0.1059210E+01
 -0.1045765E+01
 -0.1045766E+01
 -0.1034848E+01
 -0.1034848E+01
 -0.1025982E+01
 -0.1025982E+01
 -0.1018782E+01
 -0.1018782E+01
 -0.1012935E+01
 -0.1012936E+01
 -0.1008187E+01
 -0.1008188E+01
 -0.1004331E+01
 -0.1004332E+01
 -0.1001200E+01
 -0.1001200E+01
 -0.9986570E+00
 -0.9986573E+00
 -0.9965920E+00
 -0.9965922E+00
 -0.9949148E+00
 -0.9949151E+00
 -0.9935529E+00
 -0.9935532E+00
 -0.9924469E+00
 -0.9924471E+00
 -0.9915487E+00
 -0.9915490E+00
 -0.9908193E+00
 -0.9908195E+00
 -0.9902269E+00
 -0.9902272E+00
 -0.9897459E+00
 -0.9897461E+00
 -0.9893551E+00
 -0.9893554E+00
 -0.9890379E+00
 -0.9890382E+00
 -0.9887803E+00
 -0.9887806E+00
 -0.9885710E+00
 -0.9885713E+00
 -0.9884011E+00
 -0.9884014E+00
 -0.9882631E+00
 -0.9882634E+00
 -0.9881511E+00
 -0.9881514E+00
 -0.9880601E+00
 -0.9880604E+00
 -0.9879862E+00
 -0.9879864E+00
 -0.9879261E+00
 -0.9879264E+00
 -0.9878774E+00
 -0.9878777E+00
 -0.9878379E+00
 -0.9878381E+00
 -0.9878057E+00
 -0.9878060E+00
 -0.9877796E+00
 -0.9877799E+00
 -0.9877584E+00
 -0.9877586E+00
 -0.9877412E+00
 -0.9877414E+00
 -0.9877272E+00
 -0.9877275E+00
 -0.9877158E+00
 -0.9877161E+00
 -0.9877066E+00
 -0.9877068E+00
 -0.9876992E+00
 -0.9876994E+00
 -0.9876931E+00
 -0.9876933E+00
 -0.9876881E+00
 -0.9876884E+00
 -0.4938441E+02
 -0.3980186E+02
 -0.3219349E+02
 -0.2612577E+02
 -0.2126964E+02
 -0.1737217E+02
 -0.1423702E+02
 -0.1171049E+02
 -0.9671432E+01
 -0.8023845E+01
 -0.6691298E+01
 -0.5612715E+01
 -0.4739149E+01
 -0.4031270E+01
 -0.3457418E+01
 -0.2992061E+01
 -0.2614585E+01
 -0.2308326E+01
 -0.2059804E+01
 -0.1858106E+01
 -0.1694389E+01
 -0.1561490E+01
 -0.1453598E+01
 -0.1366003E+01
 -0.1294883E+01
 -0.1237137E+01
 -0.1190248E+01
 -0.1152174E+01
 -0.1121258E+01
 -0.1096152E+01
 -0.1075765E+01
 -0.1059210E+01
 -0.1045766E+01
 -0.1034848E+01
 -0.1025982E+01
 -0.1018782E+01
 -0.1012936E+01
 -0.1008188E+01
 -0.1004332E+01
 -0.1001200E+01
 -0.9986573E+00
 -0.9965922E+00
 -0.9949151E+00
 -0.9935532E+00
 -0.9924471E+00
 -0.9915490E+00
 -0.9908195E+00
 -0.9902272E+00
 -0.9897461E+00
 -0.9893554E+00
 -0.9890382E+00
 -0.9887806E+00
 -0.9885713E+00
 -0.9884014E+00
 -0.9882634E+00
 -0.9881513E+00
 -0.9880604E+00
 -0.9879864E+00
 -0.9879264E+00
 -0.9878777E+00
 -0.9878381E+00
 -0.9878060E+00
 -0.9877798E+00
 -0.9877586E+00
 -0.9877414E+00
 -0.9877275E+00
 -0.9877161E+00
 -0.9877068E+00
 -0.9876994E+00
 -0.9876933E+00
 -0.9876884E+00
 -0.4938441E+02
 -0.3980186E+02
 -0.3219349E+02
 -0.2612577E+02
 -0.2126964E+02
 -0.1737217E+02
 -0.1423702E+02
 -0.1171049E+02
 -0.9671431E+01
 -0.8023845E+01
 -0.6691297E+01
 -0.5612715E+01
 -0.4739149E+01
 -0.4031270E+01
 -0.3457418E+01
 -0.2992061E+01
 -0.2614585E+01
 -0.2308326E+01
 -0.2059804E+01
 -0.1858106E+01
 -0.1694389E+01
 -0.1561490E+01
 -0.1453598E+01
 -0.1366003E+01
 -0.1294883E+01
 -0.1237137E+01
 -0.1190248E+01
 -0.1152174E+01
 -0.1121258E+01
 -0.1096152E+01
 -0.1075765E+01
 -0.1059210E+01
 -0.1045766E+01
 -0.1034848E+01
 -0.1025982E+01
 -0.1018782E+01
 -0.1012936E+01
 -0.1008188E+01
 -0.1004332E+01
 -0.1001200E+01
 -0.9986573E+00
 -0.9965922E+00
 -0.9949151E+00
 -0.9935532E+00
 -0.9924471E+00
 -0.9915490E+00
 -0.9908195E+00
 -0.9902272E+00
 -0.9897461E+00
 -0.9893554E+00
 -0.9890382E+00
 -0.9887805E+00
 -0.9885713E+00
 -0.9884014E+00
 -0.9882634E+00
 -0.9881513E+00
 -0.9880603E+00
 -0.9879864E+00
 -0.9879264E+00
 -0.9878777E+00
 -0.9878381E+00
 -0.9878059E+00
 -0.9877798E+00
 -0.9877586E+00
 -0.9877414E+00
 -0.9877274E+00
 -0.9877161E+00
 -0.9877068E+00
 -0.9876993E+00
 -0.9876932E+00
 -0.9876884E+00
 -0.4861849E+02
 -0.4861848E+02
 -0.3918456E+02
 -0.3918455E+02
 -0.3169418E+02
 -0.3169418E+02
 -0.2572058E+02
 -0.2572057E+02
 -0.2093976E+02
 -0.2093975E+02
 -0.1710274E+02
 -0.1710274E+02
 -0.1401621E+02
 -0.1401621E+02
 -0.1152887E+02
 -0.1152886E+02
 -0.9521433E+01
 -0.9521431E+01
 -0.7899399E+01
 -0.7899398E+01
 -0.6587519E+01
 -0.6587518E+01
 -0.5525665E+01
 -0.5525664E+01
 -0.4665648E+01
 -0.4665647E+01
 -0.3968748E+01
 -0.3968747E+01
 -0.3403795E+01
 -0.3403795E+01
 -0.2945656E+01
 -0.2945656E+01
 -0.2574034E+01
 -0.2574034E+01
 -0.2272525E+01
 -0.2272525E+01
 -0.2027858E+01
 -0.2027858E+01
 -0.1829287E+01
 -0.1829287E+01
 -0.1668110E+01
 -0.1668110E+01
 -0.1537272E+01
 -0.1537272E+01
 -0.1431054E+01
 -0.1431054E+01
 -0.1344817E+01
 -0.1344817E+01
 -0.1274800E+01
 -0.1274800E+01
 -0.1217950E+01
 -0.1217950E+01
 -0.1171788E+01
 -0.1171788E+01
 -0.1134305E+01
 -0.1134305E+01
 -0.1103867E+01
 -0.1103867E+01
 -0.1079151E+01
 -0.1079151E+01
 -0.1059080E+01
 -0.1059080E+01
 -0.1042782E+01
 -0.1042782E+01
 -0.1029546E+01
 -0.1029546E+01
 -0.1018798E+01
 -0.1018798E+01
 -0.1010070E+01
 -0.1010070E+01
 -0.1002982E+01
 -0.1002982E+01
 -0.9972253E+00
 -0.9972254E+00
 -0.9925509E+00
 -0.9925509E+00
 -0.9887548E+00
 -0.9887548E+00
 -0.9856720E+00
 -0.9856720E+00
 -0.9831685E+00
 -0.9831685E+00
 -0.9811354E+00
 -0.9811354E+00
 -0.9794843E+00
 -0.9794844E+00
 -0.9781435E+00
 -0.9781435E+00
 -0.9770547E+00
 -0.9770547E+00
 -0.9761704E+00
 -0.9761704E+00
 -0.9754522E+00
 -0.9754523E+00
 -0.9748691E+00
 -0.9748691E+00
 -0.9743955E+00
 -0.9743955E+00
 -0.9740109E+00
 -0.9740109E+00
 -0.9736986E+00
 -0.9736986E+00
 -0.9734449E+00
 -0.9734449E+00
 -0.9732389E+00
 -0.9732389E+00
 -0.9730716E+00
 -0.9730717E+00
 -0.9729358E+00
 -0.9729358E+00
 -0.9728255E+00
 -0.9728255E+00
 -0.9727359E+00
 -0.9727359E+00
 -0.9726632E+00
 -0.9726632E+00
 -0.9726040E+00
 -0.9726040E+00
 -0.9725561E+00
 -0.9725561E+00
 -0.9725171E+00
 -0.9725171E+00
 -0.9724854E+00
 -0.9724854E+00
 -0.9724597E+00
 -0.9724597E+00
 -0.9724389E+00
 -0.9724389E+00
 -0.9724219E+00
 -0.9724219E+00
 -0.9724082E+00
 -0.9724082E+00
 -0.9723970E+00
 -0.9723970E+00
 -0.9723879E+00
 -0.9723879E+00
 -0.9723805E+00
 -0.9723806E+00
 -0.9723746E+00
 -0.9723746E+00
 -0.9723697E+00
 -0.9723697E+00
 -0.4861848E+02
 -0.3918455E+02
 -0.3169418E+02
 -0.2572057E+02
 -0.2093975E+02
 -0.1710274E+02
 -0.1401621E+02
 -0.1152886E+02
 -0.9521431E+01
 -0.7899398E+01
 -0.6587518E+01
 -0.5525664E+01
 -0.4665647E+01
 -0.3968747E+01
 -0.3403795E+01
 -0.2945656E+01
 -0.2574034E+01
 -0.2272525E+01
 -0.2027858E+01
 -0.1829287E+01
 -0.1668110E+01
 -0.1537272E+01
 -0.1431054E+01
 -0.1344817E+01
 -0.1274800E+01
 -0.1217950E+01
 -0.1171788E+01
 -0.1134305E+01
 -0.1103867E+01
 -0.1079151E+01
 -0.1059080E+01
 -0.1042782E+01
 -0.1029546E+01
 -0.1018798E+01
 -0.1010070E+01
 -0.1002982E+01
 -0.9972254E+00
 -0.9925509E+00
 -0.9887548E+00
 -0.9856720E+00
 -0.9831685E+00
 -0.9811354E+00
 -0.9794844E+00
 -0.9781435E+00
 -0.9770547E+00
 -0.9761704E+00
 -0.9754523E+00
 -0.9748691E+00
 -0.9743955E+00
 -0.9740109E+00
 -0.9736986E+00
 -0.9734449E+00
 -0.9732389E+00
 -0.9730716E+00
 -0.9729358E+00
 -0.9728255E+00
 -0.9727359E+00
 -0.9726632E+00
 -0.9726040E+00
 -0.9725561E+00
 -0.9725171E+00
 -0.9724854E+00
 -0.9724597E+00
 -0.9724389E+00
 -0.9724219E+00
 -0.9724082E+00
 -0.9723970E+00
 -0.9723879E+00
 -0.9723805E+00
 -0.9723746E+00
 -0.9723697E+00
 -0.4861849E+02
 -0.3918456E+02
 -0.3169418E+02
 -0.2572058E+02
 -0.2093976E+02
 -0.1710274E+02
 -0.1401621E+02
 -0.1152887E+02
 -0.9521433E+01
 -0.7899400E+01
 -0.6587519E+01
 -0.5525665E+01
 -0.4665648E+01
 -0.3968748E+01
 -0.3403795E+01
 -0.2945656E+01
 -0.2574034E+01
 -0.2272525E+01
 -0.2027858E+01
 -0.1829287E+01
 -0.1668110E+01
 -0.1537272E+01
 -0.1431054E+01
 -0.1344817E+01
 -0.1274800E+01
 -0.1217950E+01
 -0.1171788E+01
 -0.1134305E+01
 -0.1103867E+01
 -0.1079151E+01
 -0.1059080E+01
 -0.1042782E+01
 -0.1029546E+01
 -0.1018798E+01
 -0.1010070E+01
 -0.1002982E+01
 -0.9972254E+00
 -0.9925508E+00
 -0.9887547E+00
 -0.9856720E+00
 -0.9831685E+00
 -0.9811354E+00
 -0.9794843E+00
 -0.9781435E+00
 -0.9770547E+00
 -0.9761704E+00
 -0.9754522E+00
 -0.9748691E+00
 -0.9743955E+00
 -0.9740109E+00
 -0.9736986E+00
 -0.9734449E+00
 -0.9732389E+00
 -0.9730716E+00
 -0.9729358E+00
 -0.9728255E+00
 -0.9727359E+00
 -0.9726631E+00
 -0.9726040E+00
 -0.9725561E+00
 -0.9725171E+00
 -0.9724854E+00
 -0.9724597E+00
 -0.9724389E+00
 -0.9724219E+00
 -0.9724081E+00
 -0.9723970E+00
 -0.9723879E+00
 -0.9723805E+00
 -0.9723745E+00
 -0.9723697E+00
 -0.4755282E+02
 -0.4755281E+02
 -0.3832567E+02
 -0.3832566E+02
 -0.3099948E+02
 -0.3099947E+02
 -0.2515681E+02
 -0.2515680E+02
 -0.2048078E+02
 -0.2048077E+02
 -0.1672786E+02
 -0.1672786E+02
 -0.1370899E+02
 -0.1370899E+02
 -0.1127616E+02
 -0.1127616E+02
 -0.9312733E+01
 -0.9312730E+01
 -0.7726252E+01
 -0.7726250E+01
 -0.6443127E+01
 -0.6443125E+01
 -0.5404548E+01
 -0.5404547E+01
 -0.4563381E+01
 -0.4563380E+01
 -0.3881757E+01
 -0.3881756E+01
 -0.3329188E+01
 -0.3329187E+01
 -0.2881090E+01
 -0.2881089E+01
 -0.2517614E+01
 -0.2517613E+01
 -0.2222713E+01
 -0.2222713E+01
 -0.1983409E+01
 -0.1983409E+01
 -0.1789191E+01
 -0.1789191E+01
 -0.1631547E+01
 -0.1631547E+01
 -0.1503576E+01
 -0.1503576E+01
 -0.1399686E+01
 -0.1399686E+01
 -0.1315340E+01
 -0.1315340E+01
 -0.1246858E+01
 -0.1246858E+01
 -0.1191253E+01
 -0.1191253E+01
 -0.1146104E+01
 -0.1146103E+01
 -0.1109442E+01
 -0.1109442E+01
 -0.1079672E+01
 -0.1079671E+01
 -0.1055497E+01
 -0.1055497E+01
 -0.1035866E+01
 -0.1035866E+01
 -0.1019925E+01
 -0.1019925E+01
 -0.1006980E+01
 -0.1006979E+01
 -0.9964670E+00
 -0.9964669E+00
 -0.9879300E+00
 -0.9879298E+00
 -0.9809972E+00
 -0.9809971E+00
 -0.9753672E+00
 -0.9753671E+00
 -0.9707952E+00
 -0.9707951E+00
 -0.9670823E+00
 -0.9670822E+00
 -0.9640670E+00
 -0.9640669E+00
 -0.9616184E+00
 -0.9616183E+00
 -0.9596300E+00
 -0.9596298E+00
 -0.9580150E+00
 -0.9580149E+00
 -0.9567036E+00
 -0.9567035E+00
 -0.9556386E+00
 -0.9556385E+00
 -0.9547737E+00
 -0.9547736E+00
 -0.9540713E+00
 -0.9540712E+00
 -0.9535010E+00
 -0.9535009E+00
 -0.9530378E+00
 -0.9530377E+00
 -0.9526615E+00
 -0.9526615E+00
 -0.9523560E+00
 -0.9523560E+00
 -0.9521080E+00
 -0.9521078E+00
 -0.9519065E+00
 -0.9519064E+00
 -0.9517429E+00
 -0.9517428E+00
 -0.9516100E+00
 -0.9516099E+00
 -0.9515021E+00
 -0.9515020E+00
 -0.9514145E+00
 -0.9514144E+00
 -0.9513434E+00
 -0.9513432E+00
 -0.9512855E+00
 -0.9512854E+00
 -0.9512386E+00
 -0.9512385E+00
 -0.9512005E+00
 -0.9512004E+00
 -0.9511696E+00
 -0.9511694E+00
 -0.9511444E+00
 -0.9511443E+00
 -0.9511240E+00
 -0.9511239E+00
 -0.9511074E+00
 -0.9511073E+00
 -0.9510940E+00
 -0.9510939E+00
 -0.9510830E+00
 -0.9510829E+00
 -0.9510741E+00
 -0.9510740E+00
 -0.9510670E+00
 -0.9510669E+00
 -0.9510611E+00
 -0.9510610E+00
 -0.9510563E+00
 -0.9510562E+00
 -0.4755281E+02
 -0.3832566E+02
 -0.3099947E+02
 -0.2515680E+02
 -0.2048077E+02
 -0.1672786E+02
 -0.1370899E+02
 -0.1127616E+02
 -0.9312730E+01
 -0.7726250E+01
 -0.6443125E+01
 -0.5404547E+01
 -0.4563380E+01
 -0.3881756E+01
 -0.3329187E+01
 -0.2881089E+01
 -0.2517613E+01
 -0.2222713E+01
 -0.1983409E+01
 -0.1789191E+01
 -0.1631547E+01
 -0.1503576E+01
 -0.1399686E+01
 -0.1315340E+01
 -0.1246858E+01
 -0.1191253E+01
 -0.1146103E+01
 -0.1109442E+01
 -0.1079671E+01
 -0.1055497E+01
 -0.1035866E+01
 -0.1019925E+01
 -0.1006979E+01
 -0.9964669E+00
 -0.9879298E+00
 -0.9809971E+00
 -0.9753671E+00
 -0.9707951E+00
 -0.9670821E+00
 -0.9640669E+00
 -0.9616183E+00
 -0.9596298E+00
 -0.9580149E+00
 -0.9567035E+00
 -0.9556385E+00
 -0.9547736E+00
 -0.9540712E+00
 -0.9535009E+00
 -0.9530376E+00
 -0.9526615E+00
 -0.9523560E+00
 -0.9521078E+00
 -0.9519064E+00
 -0.9517428E+00
 -0.9516099E+00
 -0.9515020E+00
 -0.9514144E+00
 -0.9513432E+00
 -0.9512854E+00
 -0.9512385E+00
 -0.9512004E+00
 -0.9511694E+00
 -0.9511443E+00
 -0.9511239E+00
 -0.9511073E+00
 -0.9510939E+00
 -0.9510829E+00
 -0.9510740E+00
 -0.9510669E+00
 -0.9510610E+00
 -0.9510562E+00
 -0.4755282E+02
 -0.3832567E+02
 -0.3099948E+02
 -0.2515681E+02
 -0.2048078E+02
 -0.1672786E+02
 -0.1370899E+02
 -0.1127616E+02
 -0.9312733E+01
 -0.7726252E+01
 -0.6443127E+01
 -0.5404548E+01
 -0.4563381E+01
 -0.3881757E+01
 -0.3329187E+01
 -0.2881090E+01
 -0.2517613E+01
 -0.2222713E+01
 -0.1983409E+01
 -0.1789191E+01
 -0.1631547E+01
 -0.1503576E+01
 -0.1399686E+01
 -0.1315340E+01
 -0.1246858E+01
 -0.1191253E+01
 -0.1146103E+01
 -0.1109442E+01
 -0.1079671E+01
 -0.1055497E+01
 -0.1035866E+01
 -0.1019925E+01
 -0.1006979E+01
 -0.9964669E+00
 -0.9879298E+00
 -0.9809971E+00
 -0.9753671E+00
 -0.9707950E+00
 -0.9670821E+00
 -0.9640669E+00
 -0.9616183E+00
 -0.9596298E+00
 -0.9580149E+00
 -0.9567035E+00
 -0.9556385E+00
 -0.9547736E+00
 -0.9540712E+00
 -0.9535008E+00
 -0.9530376E+00
 -0.9526615E+00
 -0.9523559E+00
 -0.9521078E+00
 -0.9519064E+00
 -0.9517428E+00
 -0.9516099E+00
 -0.9515020E+00
 -0.9514143E+00
 -0.9513432E+00
 -0.9512854E+00
 -0.9512385E+00
 -0.9512004E+00
 -0.9511694E+00
 -0.9511443E+00
 -0.9511238E+00
 -0.9511073E+00
 -0.9510938E+00
 -0.9510829E+00
 -0.9510740E+00
 -0.9510668E+00
 -0.9510610E+00
 -0.9510562E+00
 -0.4619397E+02
 -0.4619396E+02
 -0.3723049E+02
 -0.3723048E+02
 -0.3011365E+02
 -0.3011364E+02
 -0.2443794E+02
 -0.2443793E+02
 -0.1989553E+02
 -0.1989552E+02
 -0.1624986E+02
 -0.1624985E+02
 -0.1331725E+02
 -0.1331725E+02
 -0.1095394E+02
 -0.1095394E+02
 -0.9046616E+01
 -0.9046614E+01
 -0.7505470E+01
 -0.7505468E+01
 -0.6259011E+01
 -0.6259010E+01
 -0.5250110E+01
 -0.5250109E+01
 -0.4432980E+01
 -0.4432979E+01
 -0.3770833E+01
 -0.3770833E+01
 -0.3234054E+01
 -0.3234054E+01
 -0.2798761E+01
 -0.2798761E+01
 -0.2445671E+01
 -0.2445671E+01
 -0.2159198E+01
 -0.2159198E+01
 -0.1926732E+01
 -0.1926732E+01
 -0.1738064E+01
 -0.1738064E+01
 -0.1584924E+01
 -0.1584924E+01
 -0.1460611E+01
 -0.1460611E+01
 -0.1359690E+01
 -0.1359689E+01
 -0.1277754E+01
 -0.1277753E+01
 -0.1211228E+01
 -0.1211228E+01
 -0.1157213E+01
 -0.1157212E+01
 -0.1113353E+01
 -0.1113353E+01
 -0.1077739E+01
 -0.1077739E+01
 -0.1048819E+01
 -0.1048819E+01
 -0.1025336E+01
 -0.1025336E+01
 -0.1006266E+01
 -0.1006266E+01
 -0.9907801E+00
 -0.9907800E+00
 -0.9782047E+00
 -0.9782045E+00
 -0.9679924E+00
 -0.9679923E+00
 -0.9596994E+00
 -0.9596992E+00
 -0.9529647E+00
 -0.9529646E+00
 -0.9474956E+00
 -0.9474955E+00
 -0.9430543E+00
 -0.9430541E+00
 -0.9394475E+00
 -0.9394473E+00
 -0.9365184E+00
 -0.9365182E+00
 -0.9341397E+00
 -0.9341396E+00
 -0.9322081E+00
 -0.9322079E+00
 -0.9306393E+00
 -0.9306391E+00
 -0.9293653E+00
 -0.9293652E+00
 -0.9283308E+00
 -0.9283307E+00
 -0.9274906E+00
 -0.9274905E+00
 -0.9268083E+00
 -0.9268082E+00
 -0.9262543E+00
 -0.9262541E+00
 -0.9258043E+00
 -0.9258041E+00
 -0.9254388E+00
 -0.9254386E+00
 -0.9251420E+00
 -0.9251419E+00
 -0.9249010E+00
 -0.9249009E+00
 -0.9247053E+00
 -0.9247052E+00
 -0.9245464E+00
 -0.9245462E+00
 -0.9244173E+00
 -0.9244172E+00
 -0.9243125E+00
 -0.9243124E+00
 -0.9242274E+00
 -0.9242272E+00
 -0.9241583E+00
 -0.9241582E+00
 -0.9241021E+00
 -0.9241019E+00
 -0.9240565E+00
 -0.9240564E+00
 -0.9240195E+00
 -0.9240194E+00
 -0.9239894E+00
 -0.9239892E+00
 -0.9239649E+00
 -0.9239648E+00
 -0.9239452E+00
 -0.9239451E+00
 -0.9239291E+00
 -0.9239289E+00
 -0.9239160E+00
 -0.9239159E+00
 -0.9239054E+00
 -0.9239052E+00
 -0.9238967E+00
 -0.9238966E+00
 -0.9238898E+00
 -0.9238896E+00
 -0.9238841E+00
 -0.9238839E+00
 -0.9238794E+00
 -0.9238793E+00
 -0.4619396E+02
 -0.3723048E+02
 -0.3011364E+02
 -0.2443793E+02
 -0.1989552E+02
 -0.1624985E+02
 -0.1331725E+02
 -0.1095394E+02
 -0.9046614E+01
 -0.7505468E+01
 -0.6259010E+01
 -0.5250109E+01
 -0.4432979E+01
 -0.3770833E+01
 -0.3234054E+01
 -0.2798761E+01
 -0.2445671E+01
 -0.2159198E+01
 -0.1926732E+01
 -0.1738064E+01
 -0.1584924E+01
 -0.1460611E+01
 -0.1359689E+01
 -0.1277753E+01
 -0.1211228E+01
 -0.1157212E+01
 -0.1113353E+01
 -0.1077739E+01
 -0.1048819E+01
 -0.1025336E+01
 -0.1006266E+01
 -0.9907800E+00
 -0.9782045E+00
 -0.9679923E+00
 -0.9596992E+00
 -0.9529646E+00
 -0.9474955E+00
 -0.9430541E+00
 -0.9394473E+00
 -0.9365183E+00
 -0.9341396E+00
 -0.9322079E+00
 -0.9306391E+00
 -0.9293652E+00
 -0.9283307E+00
 -0.9274905E+00
 -0.9268082E+00
 -0.9262541E+00
 -0.9258041E+00
 -0.9254386E+00
 -0.9251419E+00
 -0.9249009E+00
 -0.9247052E+00
 -0.9245462E+00
 -0.9244172E+00
 -0.9243124E+00
 -0.9242272E+00
 -0.9241581E+00
 -0.9241019E+00
 -0.9240564E+00
 -0.9240193E+00
 -0.9239892E+00
 -0.9239649E+00
 -0.9239450E+00
 -0.9239289E+00
 -0.9239159E+00
 -0.9239052E+00
 -0.9238966E+00
 -0.9238896E+00
 -0.9238839E+00
 -0.9238793E+00
 -0.4619397E+02
 -0.3723049E+02
 -0.3011365E+02
 -0.2443794E+02
 -0.1989553E+02
 -0.1624986E+02
 -0.1331725E+02
 -0.1095394E+02
 -0.9046616E+01
 -0.7505470E+01
 -0.6259011E+01
 -0.5250110E+01
 -0.4432980E+01
 -0.3770833E+01
 -0.3234054E+01
 -0.2798761E+01
 -0.2445671E+01
 -0.2159198E+01
 -0.1926732E+01
 -0.1738064E+01
 -0.1584924E+01
 -0.1460611E+01
 -0.1359689E+01
 -0.1277754E+01
 -0.1211228E+01
 -0.1157213E+01
 -0.1113353E+01
 -0.1077739E+01
 -0.1048819E+01
 -0.1025336E+01
 -0.1006266E+01
 -0.9907800E+00
 -0.9782045E+00
 -0.9679923E+00
 -0.9596992E+00
 -0.9529645E+00
 -0.9474955E+00
 -0.9430541E+00
 -0.9394473E+00
 -0.9365182E+00
 -0.9341396E+00
 -0.9322078E+00
 -0.9306391E+00
 -0.9293652E+00
 -0.9283306E+00
 -0.9274904E+00
 -0.9268081E+00
 -0.9262540E+00
 -0.9258041E+00
 -0.9254386E+00
 -0.9251419E+00
 -0.9249009E+00
 -0.9247051E+00
 -0.9245462E+00
 -0.9244171E+00
 -0.9243123E+00
 -0.9242272E+00
 -0.9241580E+00
 -0.9241019E+00
 -0.9240564E+00
 -0.9240193E+00
 -0.9239892E+00
 -0.9239648E+00
 -0.9239450E+00
 -0.9239289E+00
 -0.9239158E+00
 -0.9239052E+00
 -0.9238966E+00
 -0.9238896E+00
 -0.9238839E+00
 -0.9238793E+00
 -0.4455032E+02
 -0.4455030E+02
 -0.3590577E+02
 -0.3590575E+02
 -0.2904216E+02
 -0.2904214E+02
 -0.2356840E+02
 -0.2356838E+02
 -0.1918761E+02
 -0.1918760E+02
 -0.1567166E+02
 -0.1567165E+02
 -0.1284340E+02
 -0.1284339E+02
 -0.1056418E+02
 -0.1056418E+02
 -0.8724723E+01
 -0.8724718E+01
 -0.7238414E+01
 -0.7238410E+01
 -0.6036306E+01
 -0.6036303E+01
 -0.5063303E+01
 -0.5063300E+01
 -0.4275248E+01
 -0.4275246E+01
 -0.3636661E+01
 -0.3636659E+01
 -0.3118982E+01
 -0.3118980E+01
 -0.2699177E+01
 -0.2699176E+01
 -0.2358651E+01
 -0.2358650E+01
 -0.2082371E+01
 -0.2082370E+01
 -0.1858176E+01
 -0.1858175E+01
 -0.1676221E+01
 -0.1676221E+01
 -0.1528530E+01
 -0.1528530E+01
 -0.1408640E+01
 -0.1408640E+01
 -0.1311310E+01
 -0.1311309E+01
 -0.1232289E+01
 -0.1232289E+01
 -0.1168131E+01
 -0.1168131E+01
 -0.1116037E+01
 -0.1116037E+01
 -0.1073738E+01
 -0.1073738E+01
 -0.1039391E+01
 -0.1039391E+01
 -0.1011501E+01
 -0.1011501E+01
 -0.9888527E+00
 -0.9888526E+00
 -0.9704614E+00
 -0.9704612E+00
 -0.9555266E+00
 -0.9555265E+00
 -0.9433987E+00
 -0.9433985E+00
 -0.9335498E+00
 -0.9335496E+00
 -0.9255518E+00
 -0.9255517E+00
 -0.9190568E+00
 -0.9190566E+00
 -0.9137822E+00
 -0.9137821E+00
 -0.9094989E+00
 -0.9094988E+00
 -0.9060205E+00
 -0.9060203E+00
 -0.9031956E+00
 -0.9031954E+00
 -0.9009016E+00
 -0.9009014E+00
 -0.8990387E+00
 -0.8990385E+00
 -0.8975257E+00
 -0.8975255E+00
 -0.8962970E+00
 -0.8962969E+00
 -0.8952994E+00
 -0.8952992E+00
 -0.8944891E+00
 -0.8944889E+00
 -0.8938310E+00
 -0.8938309E+00
 -0.8932967E+00
 -0.8932965E+00
 -0.8928627E+00
 -0.8928626E+00
 -0.8925102E+00
 -0.8925101E+00
 -0.8922240E+00
 -0.8922239E+00
 -0.8919916E+00
 -0.8919914E+00
 -0.8918028E+00
 -0.8918027E+00
 -0.8916496E+00
 -0.8916494E+00
 -0.8915251E+00
 -0.8915250E+00
 -0.8914241E+00
 -0.8914239E+00
 -0.8913419E+00
 -0.8913418E+00
 -0.8912753E+00
 -0.8912752E+00
 -0.8912211E+00
 -0.8912209E+00
 -0.8911771E+00
 -0.8911770E+00
 -0.8911415E+00
 -0.8911414E+00
 -0.8911124E+00
 -0.8911123E+00
 -0.8910888E+00
 -0.8910887E+00
 -0.8910698E+00
 -0.8910697E+00
 -0.8910543E+00
 -0.8910541E+00
 -0.8910416E+00
 -0.8910415E+00
 -0.8910313E+00
 -0.8910312E+00
 -0.8910230E+00
 -0.8910229E+00
 -0.8910163E+00
 -0.8910162E+00
 -0.8910108E+00
 -0.8910107E+00
 -0.8910064E+00
 -0.8910062E+00
 -0.4455030E+02
 -0.3590575E+02
 -0.2904214E+02
 -0.2356838E+02
 -0.1918760E+02
 -0.1567165E+02
 -0.1284339E+02
 -0.1056418E+02
 -0.8724718E+01
 -0.7238410E+01
 -0.6036303E+01
 -0.5063300E+01
 -0.4275246E+01
 -0.3636659E+01
 -0.3118980E+01