 TITLE = "VectorSurfaceData"
VARIABLES = "x" "y" "z"
  "qn"
 ZONE T=Bnd4 DATAPACKING=Block
 N=356
 E=264
 ZONETYPE=FEQUADRILATERAL
 VarLocation=([4]=CellCentered)
 -0.1000000E+01
 -0.9994853E+00
 -0.1000000E+01
 -0.9994834E+00
 -0.1000000E+01
 -0.9994834E+00
 -0.1000000E+01
 -0.9994860E+00
 -0.9979451E+00
 -0.9979414E+00
 -0.9979414E+00
 -0.9979452E+00
 -0.9953786E+00
 -0.9953778E+00
 -0.9953778E+00
 -0.9953790E+00
 -0.9917892E+00
 -0.9917862E+00
 -0.9917862E+00
 -0.9917896E+00
 -0.9871809E+00
 -0.9871798E+00
 -0.9871798E+00
 -0.9871815E+00
 -0.9815586E+00
 -0.9815550E+00
 -0.9815550E+00
 -0.9815591E+00
 -0.9749277E+00
 -0.9749275E+00
 -0.9749275E+00
 -0.9749278E+00
 -0.9672939E+00
 -0.9672911E+00
 -0.9672911E+00
 -0.9672946E+00
 -0.9586671E+00
 -0.9586636E+00
 -0.9586636E+00
 -0.9586675E+00
 -0.9490548E+00
 -0.9490536E+00
 -0.9490536E+00
 -0.9490556E+00
 -0.9384679E+00
 -0.9384673E+00
 -0.9384673E+00
 -0.9384682E+00
 -0.9269156E+00
 -0.9269134E+00
 -0.9269134E+00
 -0.9269164E+00
 -0.9144118E+00
 -0.9144084E+00
 -0.9144084E+00
 -0.9144123E+00
 -0.9009688E+00
 -0.9009644E+00
 -0.9009644E+00
 -0.9009686E+00
 -0.8865987E+00
 -0.8865950E+00
 -0.8865950E+00
 -0.8865986E+00
 -0.8713178E+00
 -0.8713146E+00
 -0.8713147E+00
 -0.8713185E+00
 -0.8551418E+00
 -0.8551390E+00
 -0.8551390E+00
 -0.8551422E+00
 -0.8380879E+00
 -0.8380844E+00
 -0.8380844E+00
 -0.8380877E+00
 -0.8201720E+00
 -0.8201686E+00
 -0.8201686E+00
 -0.8201717E+00
 -0.8014134E+00
 -0.8014100E+00
 -0.8014100E+00
 -0.8014132E+00
 -0.7818312E+00
 -0.7818277E+00
 -0.7818277E+00
 -0.7818308E+00
 -0.7614457E+00
 -0.7614422E+00
 -0.7614422E+00
 -0.7614459E+00
 -0.7402778E+00
 -0.7402742E+00
 -0.7402742E+00
 -0.7402774E+00
 -0.7183493E+00
 -0.7183456E+00
 -0.7183456E+00
 -0.7183490E+00
 -0.6956825E+00
 -0.6956789E+00
 -0.6956789E+00
 -0.6956822E+00
 -0.6723008E+00
 -0.6722974E+00
 -0.6722974E+00
 -0.6723003E+00
 -0.6482282E+00
 -0.6482252E+00
 -0.6482252E+00
 -0.6482283E+00
 -0.6234896E+00
 -0.6234869E+00
 -0.6234868E+00
 -0.6234893E+00
 -0.5981104E+00
 -0.5981078E+00
 -0.5981078E+00
 -0.5981102E+00
 -0.5721166E+00
 -0.5721142E+00
 -0.5721142E+00
 -0.5721163E+00
 -0.5455348E+00
 -0.5455325E+00
 -0.5455325E+00
 -0.5455346E+00
 -0.5183920E+00
 -0.5183903E+00
 -0.5183902E+00
 -0.5183921E+00
 -0.4907171E+00
 -0.4907153E+00
 -0.4907153E+00
 -0.4907174E+00
 -0.4625380E+00
 -0.4625360E+00
 -0.4625360E+00
 -0.4625379E+00
 -0.4338838E+00
 -0.4338816E+00
 -0.4338816E+00
 -0.4338835E+00
 -0.4047830E+00
 -0.4047815E+00
 -0.4047815E+00
 -0.4047831E+00
 -0.3752666E+00
 -0.3752657E+00
 -0.3752656E+00
 -0.3752668E+00
 -0.3453649E+00
 -0.3453646E+00
 -0.3453646E+00
 -0.3453649E+00
 -0.3151079E+00
 -0.3151075E+00
 -0.3151075E+00
 -0.3151081E+00
 -0.2845274E+00
 -0.2845263E+00
 -0.2845263E+00
 -0.2845274E+00
 -0.2536543E+00
 -0.2536536E+00
 -0.2536536E+00
 -0.2536544E+00
 -0.2225209E+00
 -0.2225208E+00
 -0.2225208E+00
 -0.2225209E+00
 -0.1911585E+00
 -0.1911578E+00
 -0.1911578E+00
 -0.1911586E+00
 -0.1595998E+00
 -0.1595996E+00
 -0.1595996E+00
 -0.1595998E+00
 -0.1278771E+00
 -0.1278767E+00
 -0.1278767E+00
 -0.1278771E+00
 -0.9602296E-01
 -0.9602289E-01
 -0.9602289E-01
 -0.9602299E-01
 -0.6407019E-01
 -0.6406996E-01
 -0.6406996E-01
 -0.6407019E-01
 -0.3205154E-01
 -0.3205148E-01
 -0.3205148E-01
 -0.3205156E-01
  0.0000000E+00
  0.0000000E+00
  0.8881784E-15
  0.0000000E+00
  0.2886150E-01
  0.2886150E-01
  0.2886150E-01
  0.2886150E-01
  0.6261033E-01
  0.6261033E-01
  0.6261033E-01
  0.6261033E-01
  0.1020712E+00
  0.1020712E+00
  0.1020712E+00
  0.1020712E+00
  0.1482067E+00
  0.1482067E+00
  0.1482067E+00
  0.1482067E+00
  0.2021406E+00
  0.2021406E+00
  0.2021406E+00
  0.2021406E+00
  0.2651834E+00
  0.2651834E+00
  0.2651834E+00
  0.2651834E+00
  0.3388632E+00
  0.3388632E+00
  0.3388632E+00
  0.3388632E+00
  0.4249609E+00
  0.4249609E+00
  0.4249609E+00
  0.4249609E+00
  0.5255501E+00
  0.5255501E+00
  0.5255501E+00
  0.5255501E+00
  0.6430441E+00
  0.6430441E+00
  0.6430441E+00
  0.6430441E+00
  0.7802481E+00
  0.7802481E+00
  0.7802481E+00
  0.7802481E+00
  0.9404202E+00
  0.9404202E+00
  0.9404202E+00
  0.9404202E+00
  0.1127339E+01
  0.1127339E+01
  0.1127339E+01
  0.1127339E+01
  0.1345381E+01
  0.1345381E+01
  0.1345381E+01
  0.1345381E+01
  0.1599607E+01
  0.1599607E+01
  0.1599607E+01
  0.1599607E+01
  0.1895853E+01
  0.1895853E+01
  0.1895853E+01
  0.1895853E+01
  0.2240842E+01
  0.2240842E+01
  0.2240842E+01
  0.2240842E+01
  0.2642286E+01
  0.2642286E+01
  0.2642286E+01
  0.2642286E+01
  0.3109011E+01
  0.3109011E+01
  0.3109011E+01
  0.3109011E+01
  0.3651075E+01
  0.3651075E+01
  0.3651075E+01
  0.3651075E+01
  0.4279886E+01
  0.4279886E+01
  0.4279886E+01
  0.4279886E+01
  0.5008316E+01
  0.5008316E+01
  0.5008316E+01
  0.5008316E+01
  0.5850793E+01
  0.5850793E+01
  0.5850793E+01
  0.5850793E+01
  0.6823364E+01
  0.6823364E+01
  0.6823364E+01
  0.6823364E+01
  0.7943715E+01
  0.7943715E+01
  0.7943715E+01
  0.7943715E+01
  0.9231117E+01
  0.9231117E+01
  0.9231117E+01
  0.9231117E+01
  0.1070629E+02
  0.1070629E+02
  0.1070629E+02
  0.1070629E+02
  0.1239113E+02
  0.1239113E+02
  0.1239113E+02
  0.1239113E+02
  0.1430832E+02
  0.1430832E+02
  0.1430832E+02
  0.1430832E+02
  0.1648070E+02
  0.1648070E+02
  0.1648070E+02
  0.1648070E+02
  0.1893051E+02
  0.1893051E+02
  0.1893051E+02
  0.1893051E+02
  0.2167831E+02
  0.2167831E+02
  0.2167831E+02
  0.2167831E+02
  0.2474178E+02
  0.2474178E+02
  0.2474178E+02
  0.2474178E+02
  0.2813426E+02
  0.2813426E+02
  0.2813426E+02
  0.2813426E+02
  0.3186315E+02
  0.3186315E+02
  0.3186315E+02
  0.3186315E+02
  0.3592838E+02
  0.3592838E+02
  0.3592838E+02
  0.3592838E+02
  0.4032088E+02
  0.4032088E+02
  0.4032088E+02
  0.4032088E+02
  0.4502143E+02
  0.4502143E+02
  0.4502143E+02
  0.4502143E+02
  0.5000000E+02
  0.5000000E+02
  0.5000000E+02
  0.5000000E+02
  0.0000000E+00
  0.3205154E-01
  0.0000000E+00
  0.3205148E-01
  0.0000000E+00
  0.3205148E-01
  0.0000000E+00
  0.3205156E-01
  0.6407019E-01
  0.6406996E-01
  0.6406996E-01
  0.6407019E-01
  0.9602296E-01
  0.9602289E-01
  0.9602289E-01
  0.9602299E-01
  0.1278771E+00
  0.1278767E+00
  0.1278767E+00
  0.1278771E+00
  0.1595998E+00
  0.1595996E+00
  0.1595996E+00
  0.1595998E+00
  0.1911585E+00
  0.1911578E+00
  0.1911578E+00
  0.1911586E+00
  0.2225209E+00
  0.2225208E+00
  0.2225208E+00
  0.2225209E+00
  0.2536543E+00
  0.2536536E+00
  0.2536536E+00
  0.2536544E+00
  0.2845274E+00
  0.2845263E+00
  0.2845263E+00
  0.2845274E+00
  0.3151079E+00
  0.3151075E+00
  0.3151075E+00
  0.3151081E+00
  0.3453649E+00
  0.3453646E+00
  0.3453646E+00
  0.3453649E+00
  0.3752666E+00
  0.3752657E+00
  0.3752656E+00
  0.3752668E+00
  0.4047830E+00
  0.4047815E+00
  0.4047815E+00
  0.4047831E+00
  0.4338838E+00
  0.4338816E+00
  0.4338816E+00
  0.4338835E+00
  0.4625380E+00
  0.4625360E+00
  0.4625360E+00
  0.4625379E+00
  0.4907171E+00
  0.4907153E+00
  0.4907153E+00
  0.4907174E+00
  0.5183920E+00
  0.5183903E+00
  0.5183902E+00
  0.5183921E+00
  0.5455348E+00
  0.5455325E+00
  0.5455325E+00
  0.5455346E+00
  0.5721166E+00
  0.5721142E+00
  0.5721142E+00
  0.5721163E+00
  0.5981104E+00
  0.5981078E+00
  0.5981078E+00
  0.5981102E+00
  0.6234896E+00
  0.6234869E+00
  0.6234868E+00
  0.6234893E+00
  0.6482282E+00
  0.6482252E+00
  0.6482252E+00
  0.6482283E+00
  0.6723008E+00
  0.6722974E+00
  0.6722974E+00
  0.6723003E+00
  0.6956825E+00
  0.6956789E+00
  0.6956789E+00
  0.6956822E+00
  0.7183493E+00
  0.7183456E+00
  0.7183456E+00
  0.7183490E+00
  0.7402778E+00
  0.7402742E+00
  0.7402742E+00
  0.7402774E+00
  0.7614457E+00
  0.7614422E+00
  0.7614422E+00
  0.7614459E+00
  0.7818312E+00
  0.7818277E+00
  0.7818277E+00
  0.7818308E+00
  0.8014134E+00
  0.8014100E+00
  0.8014100E+00
  0.8014132E+00
  0.8201720E+00
  0.8201686E+00
  0.8201686E+00
  0.8201717E+00
  0.8380879E+00
  0.8380844E+00
  0.8380844E+00
  0.8380877E+00
  0.8551418E+00
  0.8551390E+00
  0.8551390E+00
  0.8551422E+00
  0.8713178E+00
  0.8713146E+00
  0.8713147E+00
  0.8713185E+00
  0.8865987E+00
  0.8865950E+00
  0.8865950E+00
  0.8865986E+00
  0.9009688E+00
  0.9009644E+00
  0.9009644E+00
  0.9009686E+00
  0.9144118E+00
  0.9144084E+00
  0.9144084E+00
  0.9144123E+00
  0.9269156E+00
  0.9269134E+00
  0.9269134E+00
  0.9269164E+00
  0.9384679E+00
  0.9384673E+00
  0.9384673E+00
  0.9384682E+00
  0.9490548E+00
  0.9490536E+00
  0.9490536E+00
  0.9490556E+00
  0.9586671E+00
  0.9586636E+00
  0.9586636E+00
  0.9586675E+00
  0.9672939E+00
  0.9672911E+00
  0.9672911E+00
  0.9672946E+00
  0.9749277E+00
  0.9749275E+00
  0.9749275E+00
  0.9749278E+00
  0.9815586E+00
  0.9815550E+00
  0.9815550E+00
  0.9815591E+00
  0.9871809E+00
  0.9871798E+00
  0.9871798E+00
  0.9871815E+00
  0.9917892E+00
  0.9917862E+00
  0.9917862E+00
  0.9917896E+00
  0.9953786E+00
  0.9953778E+00
  0.9953778E+00
  0.9953790E+00
  0.9979451E+00
  0.9979414E+00
  0.9979414E+00
  0.9979452E+00
  0.9994853E+00
  0.9994834E+00
  0.9994834E+00
  0.9994860E+00
  0.1000000E+01
  0.1000000E+01
  0.1000000E+01
  0.1000000E+01
  0.1000000E+01
  0.1000000E+01
  0.1000000E+01
  0.1000000E+01
  0.1000000E+01
  0.1000000E+01
  0.1000000E+01
  0.1000000E+01
  0.1000000E+01
  0.1000000E+01
  0.1000000E+01
  0.1000000E+01
  0.1000000E+01
  0.1000000E+01
  0.1000000E+01
  0.1000000E+01
  0.1000000E+01
  0.1000000E+01
  0.1000000E+01
  0.1000000E+01
  0.1000000E+01
  0.1000000E+01
  0.1000000E+01
  0.1000000E+01
  0.1000000E+01
  0.1000000E+01
  0.1000000E+01
  0.1000000E+01
  0.1000000E+01
  0.1000000E+01
  0.1000000E+01
  0.1000000E+01
  0.1000000E+01
  0.1000000E+01
  0.1000000E+01
  0.1000000E+01
  0.1000000E+01
  0.1000000E+01
  0.1000000E+01
  0.1000000E+01
  0.1000000E+01
  0.1000000E+01
  0.1000000E+01
  0.1000000E+01
  0.1000000E+01
  0.1000000E+01
  0.1000000E+01
  0.1000000E+01
  0.1000000E+01
  0.1000000E+01
  0.1000000E+01
  0.1000000E+01
  0.1000000E+01
  0.1000000E+01
  0.1000000E+01
  0.1000000E+01
  0.1000000E+01
  0.1000000E+01
  0.1000000E+01
  0.1000000E+01
  0.1000000E+01
  0.1000000E+01
  0.1000000E+01
  0.1000000E+01
  0.1000000E+01
  0.1000000E+01
  0.1000000E+01
  0.1000000E+01
  0.1000000E+01
  0.1000000E+01
  0.1000000E+01
  0.1000000E+01
  0.1000000E+01
  0.1000000E+01
  0.1000000E+01
  0.1000000E+01
  0.1000000E+01
  0.1000000E+01
  0.1000000E+01
  0.1000000E+01
  0.1000000E+01
  0.1000000E+01
  0.1000000E+01
  0.1000000E+01
  0.1000000E+01
  0.1000000E+01
  0.1000000E+01
  0.1000000E+01
  0.1000000E+01
  0.1000000E+01
  0.1000000E+01
  0.1000000E+01
  0.1000000E+01
  0.1000000E+01
  0.1000000E+01
  0.1000000E+01
  0.1000000E+01
  0.1000000E+01
  0.1000000E+01
  0.1000000E+01
  0.1000000E+01
  0.1000000E+01
  0.1000000E+01
  0.1000000E+01
  0.1000000E+01
  0.1000000E+01
  0.1000000E+01
  0.1000000E+01
  0.1000000E+01
  0.1000000E+01
  0.1000000E+01
  0.1000000E+01
  0.1000000E+01
  0.1000000E+01
  0.1000000E+01
  0.1000000E+01
  0.1000000E+01
  0.1000000E+01
  0.1000000E+01
  0.1000000E+01
  0.1000000E+01
  0.1000000E+01
  0.1000000E+01
  0.1000000E+01
  0.1000000E+01
  0.1000000E+01
  0.1000000E+01
  0.1000000E+01
  0.1000000E+01
  0.1000000E+01
  0.1000000E+01
  0.1000000E+01
  0.1000000E+01
  0.1000000E+01
  0.1000000E+01
  0.1000000E+01
  0.1000000E+01
  0.1000000E+01
  0.1000000E+01
  0.1000000E+01
  0.1000000E+01
  0.1000000E+01
  0.1000000E+01
  0.1000000E+01
  0.1000000E+01
  0.1000000E+01
  0.1000000E+01
  0.1000000E+01
  0.1000000E+01
  0.1000000E+01
  0.1000000E+01
  0.1000000E+01
  0.1000000E+01
  0.1000000E+01
  0.1000000E+01
  0.1000000E+01
  0.0000000E+00
  0.0000000E+00
  0.1000000E-01
  0.1000000E-01
  0.2000000E-01
  0.2000000E-01
  0.3000000E-01
  0.3000000E-01
  0.0000000E+00
  0.1000000E-01
  0.2000000E-01
  0.3000000E-01
  0.0000000E+00
  0.1000000E-01
  0.2000000E-01
  0.3000000E-01
  0.0000000E+00
  0.1000000E-01
  0.2000000E-01
  0.3000000E-01
  0.0000000E+00
  0.1000000E-01
  0.2000000E-01
  0.3000000E-01
  0.0000000E+00
  0.1000000E-01
  0.2000000E-01
  0.3000000E-01
  0.0000000E+00
  0.1000000E-01
  0.2000000E-01
  0.3000000E-01
  0.0000000E+00
  0.1000000E-01
  0.2000000E-01
  0.3000000E-01
  0.0000000E+00
  0.1000000E-01
  0.2000000E-01
  0.3000000E-01
  0.0000000E+00
  0.1000000E-01
  0.2000000E-01
  0.3000000E-01
  0.0000000E+00
  0.1000000E-01
  0.2000000E-01
  0.3000000E-01
  0.0000000E+00
  0.1000000E-01
  0.2000000E-01
  0.3000000E-01
  0.0000000E+00
  0.1000000E-01
  0.2000000E-01
  0.3000000E-01
  0.0000000E+00
  0.1000000E-01
  0.2000000E-01
  0.3000000E-01
  0.0000000E+00
  0.1000000E-01
  0.2000000E-01
  0.3000000E-01
  0.0000000E+00
  0.1000000E-01
  0.2000000E-01
  0.3000000E-01
  0.0000000E+00
  0.1000000E-01
  0.2000000E-01
  0.3000000E-01
  0.0000000E+00
  0.1000000E-01
  0.2000000E-01
  0.3000000E-01
  0.0000000E+00
  0.1000000E-01
  0.2000000E-01
  0.3000000E-01
  0.0000000E+00
  0.1000000E-01
  0.2000000E-01
  0.3000000E-01
  0.0000000E+00
  0.1000000E-01
  0.2000000E-01
  0.3000000E-01
  0.0000000E+00
  0.1000000E-01
  0.2000000E-01
  0.3000000E-01
  0.0000000E+00
  0.1000000E-01
  0.2000000E-01
  0.3000000E-01
  0.0000000E+00
  0.1000000E-01
  0.2000000E-01
  0.3000000E-01
  0.0000000E+00
  0.1000000E-01
  0.2000000E-01
  0.3000000E-01
  0.0000000E+00
  0.1000000E-01
  0.2000000E-01
  0.3000000E-01
  0.0000000E+00
  0.1000000E-01
  0.2000000E-01
  0.3000000E-01
  0.0000000E+00
  0.1000000E-01
  0.2000000E-01
  0.3000000E-01
  0.0000000E+00
  0.1000000E-01
  0.2000000E-01
  0.3000000E-01
  0.0000000E+00
  0.1000000E-01
  0.2000000E-01
  0.3000000E-01
  0.0000000E+00
  0.1000000E-01
  0.2000000E-01
  0.3000000E-01
  0.0000000E+00
  0.1000000E-01
  0.2000000E-01
  0.3000000E-01
  0.0000000E+00
  0.1000000E-01
  0.2000000E-01
  0.3000000E-01
  0.0000000E+00
  0.1000000E-01
  0.2000000E-01
  0.3000000E-01
  0.0000000E+00
  0.1000000E-01
  0.2000000E-01
  0.3000000E-01
  0.0000000E+00
  0.1000000E-01
  0.2000000E-01
  0.3000000E-01
  0.0000000E+00
  0.1000000E-01
  0.2000000E-01
  0.3000000E-01
  0.0000000E+00
  0.1000000E-01
  0.2000000E-01
  0.3000000E-01
  0.0000000E+00
  0.1000000E-01
  0.2000000E-01
  0.3000000E-01
  0.0000000E+00
  0.1000000E-01
  0.2000000E-01
  0.3000000E-01
  0.0000000E+00
  0.1000000E-01
  0.2000000E-01
  0.3000000E-01
  0.0000000E+00
  0.1000000E-01
  0.2000000E-01
  0.3000000E-01
  0.0000000E+00
  0.1000000E-01
  0.2000000E-01
  0.3000000E-01
  0.0000000E+00
  0.1000000E-01
  0.2000000E-01
  0.3000000E-01
  0.0000000E+00
  0.1000000E-01
  0.2000000E-01
  0.3000000E-01
  0.0000000E+00
  0.1000000E-01
  0.2000000E-01
  0.3000000E-01
  0.0000000E+00
  0.1000000E-01
  0.2000000E-01
  0.3000000E-01
  0.0000000E+00
  0.1000000E-01
  0.2000000E-01
  0.3000000E-01
  0.0000000E+00
  0.1000000E-01
  0.2000000E-01
  0.3000000E-01
  0.0000000E+00
  0.1000000E-01
  0.2000000E-01
  0.3000000E-01
  0.0000000E+00
  0.1000000E-01
  0.2000000E-01
  0.3000000E-01
  0.0000000E+00
  0.1000000E-01
  0.2000000E-01
  0.3000000E-01
  0.0000000E+00
  0.1000000E-01
  0.2000000E-01
  0.3000000E-01
  0.0000000E+00
  0.1000000E-01
  0.2000000E-01
  0.3000000E-01
  0.0000000E+00
  0.1000000E-01
  0.2000000E-01
  0.3000000E-01
  0.0000000E+00
  0.1000000E-01
  0.2000000E-01
  0.3000000E-01
  0.0000000E+00
  0.1000000E-01
  0.2000000E-01
  0.3000000E-01
  0.0000000E+00
  0.1000000E-01
  0.2000000E-01
  0.3000000E-01
  0.0000000E+00
  0.1000000E-01
  0.2000000E-01
  0.3000000E-01
  0.0000000E+00
  0.1000000E-01
  0.2000000E-01
  0.3000000E-01
  0.0000000E+00
  0.1000000E-01
  0.2000000E-01
  0.3000000E-01
  0.0000000E+00
  0.1000000E-01
  0.2000000E-01
  0.3000000E-01
  0.0000000E+00
  0.1000000E-01
  0.2000000E-01
  0.3000000E-01
  0.0000000E+00
  0.1000000E-01
  0.2000000E-01
  0.3000000E-01
  0.0000000E+00
  0.1000000E-01
  0.2000000E-01
  0.3000000E-01
  0.0000000E+00
  0.1000000E-01
  0.2000000E-01
  0.3000000E-01
  0.0000000E+00
  0.1000000E-01
  0.2000000E-01
  0.3000000E-01
  0.0000000E+00
  0.1000000E-01
  0.2000000E-01
  0.3000000E-01
  0.0000000E+00
  0.1000000E-01
  0.2000000E-01
  0.3000000E-01
  0.0000000E+00
  0.1000000E-01
  0.2000000E-01
  0.3000000E-01
  0.0000000E+00
  0.1000000E-01
  0.2000000E-01
  0.3000000E-01
  0.0000000E+00
  0.1000000E-01
  0.2000000E-01
  0.3000000E-01
  0.0000000E+00
  0.1000000E-01
  0.2000000E-01
  0.3000000E-01
  0.0000000E+00
  0.1000000E-01
  0.2000000E-01
  0.3000000E-01
  0.0000000E+00
  0.1000000E-01
  0.2000000E-01
  0.3000000E-01
  0.0000000E+00
  0.1000000E-01
  0.2000000E-01
  0.3000000E-01
  0.0000000E+00
  0.1000000E-01
  0.2000000E-01
  0.3000000E-01
  0.0000000E+00
  0.1000000E-01
  0.2000000E-01
  0.3000000E-01
  0.0000000E+00
  0.1000000E-01
  0.2000000E-01
  0.3000000E-01
  0.0000000E+00
  0.1000000E-01
  0.2000000E-01
  0.3000000E-01
  0.0000000E+00
  0.1000000E-01
  0.2000000E-01
  0.3000000E-01
  0.0000000E+00
  0.1000000E-01
  0.2000000E-01
  0.3000000E-01
  0.0000000E+00
  0.1000000E-01
  0.2000000E-01
  0.3000000E-01
  0.0000000E+00
  0.1000000E-01
  0.2000000E-01
  0.3000000E-01
  0.0000000E+00
  0.1000000E-01
  0.2000000E-01
  0.3000000E-01
  0.0000000E+00
  0.1000000E-01
  0.2000000E-01
  0.3000000E-01
  0.0000000E+00
  0.1000000E-01
  0.2000000E-01
  0.3000000E-01
  0.0000000E+00
  0.1000000E-01
  0.2000000E-01
  0.3000000E-01
  0.5307867E+04
  0.5307553E+04
  0.5307919E+04
  0.5341640E+04
  0.5341329E+04
  0.5341723E+04
  0.5345279E+04
  0.5345084E+04
  0.5345447E+04
  0.5346375E+04
  0.5346093E+04
  0.5346487E+04
  0.5333735E+04
  0.5333163E+04
  0.5333580E+04
  0.5308313E+04
  0.5307476E+04
  0.5308029E+04
  0.5272364E+04
  0.5272773E+04
  0.5272283E+04
  0.5225670E+04
  0.5225104E+04
  0.5225959E+04
  0.5172478E+04
  0.5172010E+04
  0.5172792E+04
  0.5111185E+04
  0.5111164E+04
  0.5111145E+04
  0.5043186E+04
  0.5043076E+04
  0.5043026E+04
  0.4968522E+04
  0.4967529E+04
  0.4968220E+04
  0.4888369E+04
  0.4887612E+04
  0.4888023E+04
  0.4801694E+04
  0.4801409E+04
  0.4802079E+04
  0.4710912E+04
  0.4710198E+04
  0.4710363E+04
  0.4614372E+04
  0.4614264E+04
  0.4614793E+04
  0.4513006E+04
  0.4512877E+04
  0.4513271E+04
  0.4408814E+04
  0.4407744E+04
  0.4407961E+04
  0.4299270E+04
  0.4298786E+04
  0.4299002E+04
  0.4185793E+04
  0.4185545E+04
  0.4186051E+04
  0.4069825E+04
  0.4069303E+04
  0.4069740E+04
  0.3949016E+04
  0.3948337E+04
  0.3948981E+04
  0.3825581E+04
  0.3825091E+04
  0.3825278E+04
  0.3700690E+04
  0.3700062E+04
  0.3700608E+04
  0.3573333E+04
  0.3572665E+04
  0.3573070E+04
  0.3443145E+04
  0.3442681E+04
  0.3443108E+04
  0.3317809E+04
  0.3317394E+04
  0.3317920E+04
  0.3193033E+04
  0.3192418E+04
  0.3192480E+04
  0.3059630E+04
  0.3059081E+04
  0.3059924E+04
  0.2929554E+04
  0.2929078E+04
  0.2929350E+04
  0.2800762E+04
  0.2800225E+04
  0.2800810E+04
  0.2670961E+04
  0.2670679E+04
  0.2670909E+04
  0.2541620E+04
  0.2541019E+04
  0.2541637E+04
  0.2416214E+04
  0.2415459E+04
  0.2415885E+04
  0.2290347E+04
  0.2289260E+04
  0.2289781E+04
  0.2165986E+04
  0.2165778E+04
  0.2166519E+04
  0.2043122E+04
  0.2043054E+04
  0.2043120E+04
  0.1927785E+04
  0.1928245E+04
  0.1927584E+04
  0.1807364E+04
  0.1806703E+04
  0.1807491E+04
  0.1695062E+04
  0.1693796E+04
  0.1694736E+04
  0.1577367E+04
  0.1576867E+04
  0.1577550E+04
  0.1478904E+04
  0.1478784E+04
  0.1478656E+04
  0.1361390E+04
  0.1361620E+04
  0.1361459E+04
  0.1272234E+04
  0.1271754E+04
  0.1272112E+04
  0.1157482E+04
  0.1157455E+04
  0.1157530E+04
  0.1088955E+04
  0.1088816E+04
  0.1088894E+04
  0.9631167E+03
  0.9618458E+03
  0.9631437E+03
  0.9422101E+03
  0.9423238E+03
  0.9421601E+03
  0.6908594E+03
  0.6905571E+03
  0.6908746E+03
  0.8026768E+03
  0.8025270E+03
  0.8027853E+03
  0.7479429E+03
  0.7477214E+03
  0.7479860E+03
  0.7322109E+03
  0.7319599E+03
  0.7322412E+03
  0.7281882E+03
  0.7279198E+03
  0.7282080E+03
  0.7245490E+03
  0.7242683E+03
  0.7245619E+03
  0.7200354E+03
  0.7197516E+03
  0.7200444E+03
  0.7155165E+03
  0.7152354E+03
  0.7155226E+03
  0.7111888E+03
  0.7109085E+03
  0.7111911E+03
  0.7070098E+03
  0.7067227E+03
  0.7070045E+03
  0.7035834E+03
  0.7032880E+03
  0.7035679E+03
  0.7014880E+03
  0.7012046E+03
  0.7014663E+03
  0.6994318E+03
  0.6992060E+03
  0.6994182E+03
  0.6949804E+03
  0.6948560E+03
  0.6949945E+03
  0.6868799E+03
  0.6868372E+03
  0.6869250E+03
  0.6776707E+03
  0.6775910E+03
  0.6777244E+03
  0.6709057E+03
  0.6705678E+03
  0.6709030E+03
  0.6694181E+03
  0.6685938E+03
  0.6692838E+03
  0.6642106E+03
  0.6626042E+03
  0.6638391E+03
  0.6586576E+03
  0.6562280E+03
  0.6580104E+03
  0.6493371E+03
  0.6459926E+03
  0.6483476E+03
  0.6346119E+03
  0.6300706E+03
  0.6331691E+03
  0.6218108E+03
  0.6160861E+03
  0.6199163E+03
  0.6009175E+03
  0.5937535E+03
  0.5984479E+03
  0.5847107E+03
  0.5759308E+03
  0.5815537E+03
  0.5624235E+03
  0.5519994E+03
  0.5586151E+03
  0.5439744E+03
  0.5320967E+03
  0.5395976E+03
  0.5266614E+03
  0.5135657E+03
  0.5219334E+03
  0.5108735E+03
  0.4965045E+03
  0.5057377E+03
  0.4931247E+03
  0.4780034E+03
  0.4879665E+03
  0.4775453E+03
  0.4616899E+03
  0.4724677E+03
  0.4670256E+03
  0.4503917E+03
  0.4620974E+03
  0.4545223E+03
  0.4371411E+03
  0.4498998E+03
  0.4444821E+03
  0.4265157E+03
  0.4403121E+03
  0.4296949E+03
  0.4117713E+03
  0.4260907E+03
  0.4172306E+03
  0.3993324E+03
  0.4142251E+03
  0.4071022E+03
  0.3891336E+03
  0.4047840E+03
  0.3995206E+03
  0.3813868E+03
  0.3977376E+03
  0.3950536E+03
  0.3765720E+03
  0.3938581E+03
  0.3923600E+03
  0.3734814E+03
  0.3917004E+03
4 3 1 2
6 5 3 4
8 7 5 6
10 4 2 9
11 6 4 10
12 8 6 11
14 10 9 13
15 11 10 14
16 12 11 15
18 14 13 17
19 15 14 18
20 16 15 19
22 18 17 21
23 19 18 22
24 20 19 23
26 22 21 25
27 23 22 26
28 24 23 27
30 26 25 29
31 27 26 30
32 28 27 31
34 30 29 33
35 31 30 34
36 32 31 35
38 34 33 37
39 35 34 38
40 36 35 39
42 38 37 41
43 39 38 42
44 40 39 43
46 42 41 45
47 43 42 46
48 44 43 47
50 46 45 49
51 47 46 50
52 48 47 51
54 50 49 53
55 51 50 54
56 52 51 55
58 54 53 57
59 55 54 58
60 56 55 59
62 58 57 61
63 59 58 62
64 60 59 63
66 62 61 65
67 63 62 66
68 64 63 67
70 66 65 69
71 67 66 70
72 68 67 71
74 70 69 73
75 71 70 74
76 72 71 75
78 74 73 77
79 75 74 78
80 76 75 79
82 78 77 81
83 79 78 82
84 80 79 83
86 82 81 85
87 83 82 86
88 84 83 87
90 86 85 89
91 87 86 90
92 88 87 91
94 90 89 93
95 91 90 94
96 92 91 95
98 94 93 97
99 95 94 98
100 96 95 99
102 98 97 101
103 99 98 102
104 100 99 103
106 102 101 105
107 103 102 106
108 104 103 107
110 106 105 109
111 107 106 110
112 108 107 111
114 110 109 113
115 111 110 114
116 112 111 115
118 114 113 117
119 115 114 118
120 116 115 119
122 118 117 121
123 119 118 122
124 120 119 123
126 122 121 125
127 123 122 126
128 124 123 127
130 126 125 129
131 127 126 130
132 128 127 131
134 130 129 133
135 131 130 134
136 132 131 135
138 134 133 137
139 135 134 138
140 136 135 139
142 138 137 141
143 139 138 142
144 140 139 143
146 142 141 145
147 143 142 146
148 144 143 147
150 146 145 149
151 147 146 150
152 148 147 151
154 150 149 153
155 151 150 154
156 152 151 155
158 154 153 157
159 155 154 158
160 156 155 159
162 158 157 161
163 159 158 162
164 160 159 163
166 162 161 165
167 163 162 166
168 164 163 167
170 166 165 169
171 167 166 170
172 168 167 171
174 170 169 173
175 171 170 174
176 172 171 175
178 174 173 177
179 175 174 178
180 176 175 179
182 178 177 181
183 179 178 182
184 180 179 183
186 182 181 185
187 183 182 186
188 184 183 187
190 186 185 189
191 187 186 190
192 188 187 191
194 190 189 193
195 191 190 194
196 192 191 195
198 194 193 197
199 195 194 198
200 196 195 199
202 198 197 201
203 199 198 202
204 200 199 203
206 202 201 205
207 203 202 206
208 204 203 207
210 206 205 209
211 207 206 210
212 208 207 211
214 210 209 213
215 211 210 214
216 212 211 215
218 214 213 217
219 215 214 218
220 216 215 219
222 218 217 221
223 219 218 222
224 220 219 223
226 222 221 225
227 223 222 226
228 224 223 227
230 226 225 229
231 227 226 230
232 228 227 231
234 230 229 233
235 231 230 234
236 232 231 235
238 234 233 237
239 235 234 238
240 236 235 239
242 238 237 241
243 239 238 242
244 240 239 243
246 242 241 245
247 243 242 246
248 244 243 247
250 246 245 249
251 247 246 250
252 248 247 251
254 250 249 253
255 251 250 254
256 252 251 255
258 254 253 257
259 255 254 258
260 256 255 259
262 258 257 261
263 259 258 262
264 260 259 263
266 262 261 265
267 263 262 266
268 264 263 267
270 266 265 269
271 267 266 270
272 268 267 271
274 270 269 273
275 271 270 274
276 272 271 275
278 274 273 277
279 275 274 278
280 276 275 279
282 278 277 281
283 279 278 282
284 280 279 283
286 282 281 285
287 283 282 286
288 284 283 287
290 286 285 289
291 287 286 290
292 288 287 291
294 290 289 293
295 291 290 294
296 292 291 295
298 294 293 297
299 295 294 298
300 296 295 299
302 298 297 301
303 299 298 302
304 300 299 303
306 302 301 305
307 303 302 306
308 304 303 307
310 306 305 309
311 307 306 310
312 308 307 311
314 310 309 313
315 311 310 314
316 312 311 315
318 314 313 317
319 315 314 318
320 316 315 319
322 318 317 321
323 319 318 322
324 320 319 323
326 322 321 325
327 323 322 326
328 324 323 327
330 326 325 329
331 327 326 330
332 328 327 331
334 330 329 333
335 331 330 334
336 332 331 335
338 334 333 337
339 335 334 338
340 336 335 339
342 338 337 341
343 339 338 342
344 340 339 343
346 342 341 345
347 343 342 346
348 344 343 347
350 346 345 349
351 347 346 350
352 348 347 351
354 350 349 353
355 351 350 354
356 352 351 355
