 TITLE = "VectorSurfaceData"
VARIABLES = "x" "y" "z"
  "fnorm1"
  "fnorm2"
  "fnorm3"
  "fnorm"
  "ftau1"
  "ftau2"
  "ftau3"
  "ftau"
  "yplus"
 ZONE T=Bnd2 DATAPACKING=Block
 N=16200
 E=15931
 ZONETYPE=FEQUADRILATERAL
 VarLocation=([4-12]=CellCentered)
 -0.5000000E+02
 -0.4997431E+02
 -0.5000000E+02
 -0.4514899E+02
 -0.4512580E+02
 -0.4514899E+02
 -0.4052303E+02
 -0.4050221E+02
 -0.4052303E+02
 -0.3616663E+02
 -0.3614804E+02
 -0.3616663E+02
 -0.3211224E+02
 -0.3209574E+02
 -0.3211224E+02
 -0.2838019E+02
 -0.2836560E+02
 -0.2838019E+02
 -0.2497946E+02
 -0.2496662E+02
 -0.2497946E+02
 -0.2190911E+02
 -0.2189785E+02
 -0.2190911E+02
 -0.1916007E+02
 -0.1915022E+02
 -0.1916007E+02
 -0.1671702E+02
 -0.1670843E+02
 -0.1671702E+02
 -0.1456027E+02
 -0.1455278E+02
 -0.1456027E+02
 -0.1266740E+02
 -0.1266089E+02
 -0.1266740E+02
 -0.1101466E+02
 -0.1100900E+02
 -0.1101466E+02
 -0.9578058E+01
 -0.9573135E+01
 -0.9578058E+01
 -0.8334204E+01
 -0.8329921E+01
 -0.8334204E+01
 -0.7260876E+01
 -0.7257144E+01
 -0.7260876E+01
 -0.6337399E+01
 -0.6334142E+01
 -0.6337399E+01
 -0.5544849E+01
 -0.5541999E+01
 -0.5544849E+01
 -0.4866128E+01
 -0.4863627E+01
 -0.4866128E+01
 -0.4285964E+01
 -0.4283761E+01
 -0.4285964E+01
 -0.3790827E+01
 -0.3788878E+01
 -0.3790827E+01
 -0.3368826E+01
 -0.3367095E+01
 -0.3368826E+01
 -0.3009572E+01
 -0.3008025E+01
 -0.3009572E+01
 -0.2704034E+01
 -0.2702644E+01
 -0.2704034E+01
 -0.2444397E+01
 -0.2443141E+01
 -0.2444397E+01
 -0.2223922E+01
 -0.2222778E+01
 -0.2223922E+01
 -0.2036813E+01
 -0.2035765E+01
 -0.2036813E+01
 -0.1878103E+01
 -0.1877137E+01
 -0.1878103E+01
 -0.1743539E+01
 -0.1742642E+01
 -0.1743539E+01
 -0.1629489E+01
 -0.1628651E+01
 -0.1629489E+01
 -0.1532856E+01
 -0.1532068E+01
 -0.1532856E+01
 -0.1451003E+01
 -0.1450256E+01
 -0.1451003E+01
 -0.1381683E+01
 -0.1380972E+01
 -0.1381683E+01
 -0.1322990E+01
 -0.1322309E+01
 -0.1322990E+01
 -0.1273301E+01
 -0.1272646E+01
 -0.1273301E+01
 -0.1231241E+01
 -0.1230608E+01
 -0.1231241E+01
 -0.1195643E+01
 -0.1195028E+01
 -0.1195643E+01
 -0.1165518E+01
 -0.1164918E+01
 -0.1165518E+01
 -0.1140025E+01
 -0.1139438E+01
 -0.1140025E+01
 -0.1118454E+01
 -0.1117878E+01
 -0.1118454E+01
 -0.1100203E+01
 -0.1099636E+01
 -0.1100203E+01
 -0.1084761E+01
 -0.1084203E+01
 -0.1084761E+01
 -0.1071697E+01
 -0.1071145E+01
 -0.1071697E+01
 -0.1060645E+01
 -0.1060099E+01
 -0.1060645E+01
 -0.1051295E+01
 -0.1050754E+01
 -0.1051295E+01
 -0.1043385E+01
 -0.1042848E+01
 -0.1043385E+01
 -0.1036694E+01
 -0.1036161E+01
 -0.1036694E+01
 -0.1031034E+01
 -0.1030504E+01
 -0.1031034E+01
 -0.1026247E+01
 -0.1025718E+01
 -0.1026247E+01
 -0.1022197E+01
 -0.1021671E+01
 -0.1022197E+01
 -0.1018771E+01
 -0.1018247E+01
 -0.1018771E+01
 -0.1015873E+01
 -0.1015350E+01
 -0.1015873E+01
 -0.1013422E+01
 -0.1012900E+01
 -0.1013422E+01
 -0.1011349E+01
 -0.1010828E+01
 -0.1011349E+01
 -0.1009595E+01
 -0.1009075E+01
 -0.1009595E+01
 -0.1008112E+01
 -0.1007593E+01
 -0.1008112E+01
 -0.1006857E+01
 -0.1006339E+01
 -0.1006857E+01
 -0.1005796E+01
 -0.1005278E+01
 -0.1005796E+01
 -0.1004898E+01
 -0.1004381E+01
 -0.1004898E+01
 -0.1004139E+01
 -0.1003622E+01
 -0.1004139E+01
 -0.1003496E+01
 -0.1002980E+01
 -0.1003496E+01
 -0.1002953E+01
 -0.1002437E+01
 -0.1002953E+01
 -0.1002494E+01
 -0.1001978E+01
 -0.1002494E+01
 -0.1002105E+01
 -0.1001589E+01
 -0.1002105E+01
 -0.1001776E+01
 -0.1001261E+01
 -0.1001776E+01
 -0.1001498E+01
 -0.1000983E+01
 -0.1001498E+01
 -0.1001263E+01
 -0.1000748E+01
 -0.1001263E+01
 -0.1001064E+01
 -0.1000549E+01
 -0.1001064E+01
 -0.1000896E+01
 -0.1000381E+01
 -0.1000896E+01
 -0.1000753E+01
 -0.1000238E+01
 -0.1000753E+01
 -0.1000633E+01
 -0.1000118E+01
 -0.1000633E+01
 -0.1000531E+01
 -0.1000016E+01
 -0.1000531E+01
 -0.1000445E+01
 -0.9999301E+00
 -0.1000445E+01
 -0.1000372E+01
 -0.9998573E+00
 -0.1000372E+01
 -0.1000311E+01
 -0.9997957E+00
 -0.1000311E+01
 -0.1000259E+01
 -0.9997436E+00
 -0.1000259E+01
 -0.1000214E+01
 -0.9996995E+00
 -0.1000214E+01
 -0.1000177E+01
 -0.9996623E+00
 -0.1000177E+01
 -0.1000146E+01
 -0.9996307E+00
 -0.1000146E+01
 -0.1000119E+01
 -0.9996041E+00
 -0.1000119E+01
 -0.1000096E+01
 -0.9995816E+00
 -0.1000096E+01
 -0.1000077E+01
 -0.9995625E+00
 -0.1000077E+01
 -0.1000061E+01
 -0.9995463E+00
 -0.1000061E+01
 -0.1000047E+01
 -0.9995327E+00
 -0.1000047E+01
 -0.1000036E+01
 -0.9995211E+00
 -0.1000036E+01
 -0.1000026E+01
 -0.9995114E+00
 -0.1000026E+01
 -0.1000018E+01
 -0.9995031E+00
 -0.1000018E+01
 -0.1000011E+01
 -0.9994962E+00
 -0.1000011E+01
 -0.1000005E+01
 -0.9994903E+00
 -0.1000005E+01
 -0.1000000E+01
 -0.9994853E+00
 -0.1000000E+01
 -0.5000000E+02
 -0.4514899E+02
 -0.4052303E+02
 -0.3616663E+02
 -0.3211224E+02
 -0.2838019E+02
 -0.2497946E+02
 -0.2190911E+02
 -0.1916007E+02
 -0.1671702E+02
 -0.1456027E+02
 -0.1266740E+02
 -0.1101466E+02
 -0.9578058E+01
 -0.8334204E+01
 -0.7260876E+01
 -0.6337399E+01
 -0.5544849E+01
 -0.4866128E+01
 -0.4285964E+01
 -0.3790827E+01
 -0.3368826E+01
 -0.3009572E+01
 -0.2704034E+01
 -0.2444397E+01
 -0.2223922E+01
 -0.2036813E+01
 -0.1878103E+01
 -0.1743539E+01
 -0.1629489E+01
 -0.1532856E+01
 -0.1451003E+01
 -0.1381683E+01
 -0.1322990E+01
 -0.1273301E+01
 -0.1231241E+01
 -0.1195643E+01
 -0.1165518E+01
 -0.1140025E+01
 -0.1118454E+01
 -0.1100203E+01
 -0.1084761E+01
 -0.1071697E+01
 -0.1060645E+01
 -0.1051295E+01
 -0.1043385E+01
 -0.1036694E+01
 -0.1031034E+01
 -0.1026247E+01
 -0.1022197E+01
 -0.1018771E+01
 -0.1015873E+01
 -0.1013422E+01
 -0.1011349E+01
 -0.1009595E+01
 -0.1008112E+01
 -0.1006857E+01
 -0.1005796E+01
 -0.1004898E+01
 -0.1004139E+01
 -0.1003496E+01
 -0.1002953E+01
 -0.1002494E+01
 -0.1002105E+01
 -0.1001776E+01
 -0.1001498E+01
 -0.1001263E+01
 -0.1001064E+01
 -0.1000896E+01
 -0.1000753E+01
 -0.1000633E+01
 -0.1000531E+01
 -0.1000445E+01
 -0.1000372E+01
 -0.1000311E+01
 -0.1000259E+01
 -0.1000214E+01
 -0.1000177E+01
 -0.1000146E+01
 -0.1000119E+01
 -0.1000096E+01
 -0.1000077E+01
 -0.1000061E+01
 -0.1000047E+01
 -0.1000036E+01
 -0.1000026E+01
 -0.1000018E+01
 -0.1000011E+01
 -0.1000005E+01
 -0.1000000E+01
 -0.5000000E+02
 -0.4997431E+02
 -0.4514899E+02
 -0.4512580E+02
 -0.4052303E+02
 -0.4050221E+02
 -0.3616663E+02
 -0.3614804E+02
 -0.3211224E+02
 -0.3209574E+02
 -0.2838019E+02
 -0.2836561E+02
 -0.2497946E+02
 -0.2496663E+02
 -0.2190911E+02
 -0.2189786E+02
 -0.1916007E+02
 -0.1915022E+02
 -0.1671702E+02
 -0.1670843E+02
 -0.1456027E+02
 -0.1455278E+02
 -0.1266740E+02
 -0.1266089E+02
 -0.1101466E+02
 -0.1100900E+02
 -0.9578058E+01
 -0.9573136E+01
 -0.8334204E+01
 -0.8329922E+01
 -0.7260876E+01
 -0.7257145E+01
 -0.6337399E+01
 -0.6334143E+01
 -0.5544849E+01
 -0.5542000E+01
 -0.4866128E+01
 -0.4863628E+01
 -0.4285964E+01
 -0.4283761E+01
 -0.3790827E+01
 -0.3788879E+01
 -0.3368826E+01
 -0.3367095E+01
 -0.3009572E+01
 -0.3008026E+01
 -0.2704034E+01
 -0.2702645E+01
 -0.2444397E+01
 -0.2443141E+01
 -0.2223922E+01
 -0.2222779E+01
 -0.2036813E+01
 -0.2035766E+01
 -0.1878103E+01
 -0.1877137E+01
 -0.1743539E+01
 -0.1742642E+01
 -0.1629489E+01
 -0.1628651E+01
 -0.1532856E+01
 -0.1532069E+01
 -0.1451003E+01
 -0.1450257E+01
 -0.1381683E+01
 -0.1380973E+01
 -0.1322990E+01
 -0.1322310E+01
 -0.1273301E+01
 -0.1272646E+01
 -0.1231241E+01
 -0.1230608E+01
 -0.1195643E+01
 -0.1195029E+01
 -0.1165518E+01
 -0.1164919E+01
 -0.1140025E+01
 -0.1139439E+01
 -0.1118454E+01
 -0.1117879E+01
 -0.1100203E+01
 -0.1099637E+01
 -0.1084761E+01
 -0.1084203E+01
 -0.1071697E+01
 -0.1071146E+01
 -0.1060645E+01
 -0.1060099E+01
 -0.1051295E+01
 -0.1050754E+01
 -0.1043385E+01
 -0.1042849E+01
 -0.1036694E+01
 -0.1036162E+01
 -0.1031034E+01
 -0.1030504E+01
 -0.1026247E+01
 -0.1025719E+01
 -0.1022197E+01
 -0.1021671E+01
 -0.1018771E+01
 -0.1018247E+01
 -0.1015873E+01
 -0.1015351E+01
 -0.1013422E+01
 -0.1012901E+01
 -0.1011349E+01
 -0.1010829E+01
 -0.1009595E+01
 -0.1009076E+01
 -0.1008112E+01
 -0.1007594E+01
 -0.1006857E+01
 -0.1006339E+01
 -0.1005796E+01
 -0.1005279E+01
 -0.1004898E+01
 -0.1004381E+01
 -0.1004139E+01
 -0.1003623E+01
 -0.1003496E+01
 -0.1002981E+01
 -0.1002953E+01
 -0.1002438E+01
 -0.1002494E+01
 -0.1001978E+01
 -0.1002105E+01
 -0.1001590E+01
 -0.1001776E+01
 -0.1001261E+01
 -0.1001498E+01
 -0.1000983E+01
 -0.1001263E+01
 -0.1000748E+01
 -0.1001064E+01
 -0.1000549E+01
 -0.1000896E+01
 -0.1000381E+01
 -0.1000753E+01
 -0.1000239E+01
 -0.1000633E+01
 -0.1000119E+01
 -0.1000531E+01
 -0.1000017E+01
 -0.1000445E+01
 -0.9999309E+00
 -0.1000372E+01
 -0.9998580E+00
 -0.1000311E+01
 -0.9997964E+00
 -0.1000259E+01
 -0.9997444E+00
 -0.1000214E+01
 -0.9997003E+00
 -0.1000177E+01
 -0.9996631E+00
 -0.1000146E+01
 -0.9996315E+00
 -0.1000119E+01
 -0.9996048E+00
 -0.1000096E+01
 -0.9995823E+00
 -0.1000077E+01
 -0.9995632E+00
 -0.1000061E+01
 -0.9995471E+00
 -0.1000047E+01
 -0.9995334E+00
 -0.1000036E+01
 -0.9995219E+00
 -0.1000026E+01
 -0.9995121E+00
 -0.1000018E+01
 -0.9995039E+00
 -0.1000011E+01
 -0.9994969E+00
 -0.1000005E+01
 -0.9994910E+00
 -0.1000000E+01
 -0.9994860E+00
 -0.4989726E+02
 -0.4505622E+02
 -0.4043977E+02
 -0.3609232E+02
 -0.3204625E+02
 -0.2832187E+02
 -0.2492813E+02
 -0.2186410E+02
 -0.1912070E+02
 -0.1668267E+02
 -0.1453035E+02
 -0.1264137E+02
 -0.1099203E+02
 -0.9558377E+01
 -0.8317079E+01
 -0.7245956E+01
 -0.6324378E+01
 -0.5533455E+01
 -0.4856130E+01
 -0.4277157E+01
 -0.3783038E+01
 -0.3361904E+01
 -0.3003388E+01
 -0.2698478E+01
 -0.2439375E+01
 -0.2219352E+01
 -0.2032628E+01
 -0.1874243E+01
 -0.1739956E+01
 -0.1626140E+01
 -0.1529707E+01
 -0.1448021E+01
 -0.1378844E+01
 -0.1320271E+01
 -0.1270684E+01
 -0.1228711E+01
 -0.1193187E+01
 -0.1163123E+01
 -0.1137682E+01
 -0.1116156E+01
 -0.1097942E+01
 -0.1082532E+01
 -0.1069495E+01
 -0.1058465E+01
 -0.1049134E+01
 -0.1041241E+01
 -0.1034564E+01
 -0.1028916E+01
 -0.1024138E+01
 -0.1020096E+01
 -0.1016678E+01
 -0.1013786E+01
 -0.1011340E+01
 -0.1009271E+01
 -0.1007520E+01
 -0.1006040E+01
 -0.1004788E+01
 -0.1003729E+01
 -0.1002833E+01
 -0.1002075E+01
 -0.1001434E+01
 -0.1000892E+01
 -0.1000434E+01
 -0.1000046E+01
 -0.9997177E+00
 -0.9994402E+00
 -0.9992055E+00
 -0.9990069E+00
 -0.9988390E+00
 -0.9986970E+00
 -0.9985768E+00
 -0.9984752E+00
 -0.9983892E+00
 -0.9983166E+00
 -0.9982551E+00
 -0.9982030E+00
 -0.9981591E+00
 -0.9981219E+00
 -0.9980904E+00
 -0.9980637E+00
 -0.9980413E+00
 -0.9980222E+00
 -0.9980061E+00
 -0.9979925E+00
 -0.9979810E+00
 -0.9979712E+00
 -0.9979630E+00
 -0.9979560E+00
 -0.9979501E+00
 -0.9979451E+00
 -0.4989727E+02
 -0.4505623E+02
 -0.4043977E+02
 -0.3609232E+02
 -0.3204626E+02
 -0.2832188E+02
 -0.2492813E+02
 -0.2186410E+02
 -0.1912070E+02
 -0.1668267E+02
 -0.1453035E+02
 -0.1264137E+02
 -0.1099203E+02
 -0.9558378E+01
 -0.8317080E+01
 -0.7245957E+01
 -0.6324378E+01
 -0.5533456E+01
 -0.4856131E+01
 -0.4277158E+01
 -0.3783038E+01
 -0.3361905E+01
 -0.3003389E+01
 -0.2698478E+01
 -0.2439375E+01
 -0.2219352E+01
 -0.2032628E+01
 -0.1874243E+01
 -0.1739956E+01
 -0.1626141E+01
 -0.1529707E+01
 -0.1448021E+01
 -0.1378844E+01
 -0.1320271E+01
 -0.1270684E+01
 -0.1228711E+01
 -0.1193187E+01
 -0.1163123E+01
 -0.1137682E+01
 -0.1116156E+01
 -0.1097942E+01
 -0.1082532E+01
 -0.1069495E+01
 -0.1058465E+01
 -0.1049135E+01
 -0.1041241E+01
 -0.1034564E+01
 -0.1028916E+01
 -0.1024138E+01
 -0.1020096E+01
 -0.1016678E+01
 -0.1013786E+01
 -0.1011340E+01
 -0.1009271E+01
 -0.1007521E+01
 -0.1006040E+01
 -0.1004788E+01
 -0.1003729E+01
 -0.1002833E+01
 -0.1002075E+01
 -0.1001434E+01
 -0.1000892E+01
 -0.1000434E+01
 -0.1000046E+01
 -0.9997178E+00
 -0.9994403E+00
 -0.9992055E+00
 -0.9990070E+00
 -0.9988391E+00
 -0.9986970E+00
 -0.9985769E+00
 -0.9984753E+00
 -0.9983894E+00
 -0.9983166E+00
 -0.9982552E+00
 -0.9982032E+00
 -0.9981592E+00
 -0.9981220E+00
 -0.9980904E+00
 -0.9980639E+00
 -0.9980413E+00
 -0.9980223E+00
 -0.9980062E+00
 -0.9979926E+00
 -0.9979810E+00
 -0.9979713E+00
 -0.9979630E+00
 -0.9979560E+00
 -0.9979501E+00
 -0.9979452E+00
 -0.4976895E+02
 -0.4494036E+02
 -0.4033578E+02
 -0.3599950E+02
 -0.3196385E+02
 -0.2824904E+02
 -0.2486403E+02
 -0.2180787E+02
 -0.1907153E+02
 -0.1663977E+02
 -0.1449298E+02
 -0.1260886E+02
 -0.1096376E+02
 -0.9533797E+01
 -0.8295691E+01
 -0.7227324E+01
 -0.6308114E+01
 -0.5519226E+01
 -0.4843642E+01
 -0.4266159E+01
 -0.3773309E+01
 -0.3353259E+01
 -0.2995665E+01
 -0.2691539E+01
 -0.2433101E+01
 -0.2213645E+01
 -0.2027400E+01
 -0.1869424E+01
 -0.1735481E+01
 -0.1621959E+01
 -0.1525773E+01
 -0.1444297E+01
 -0.1375298E+01
 -0.1316876E+01
 -0.1267416E+01
 -0.1225551E+01
 -0.1190118E+01
 -0.1160131E+01
 -0.1134756E+01
 -0.1113285E+01
 -0.1095118E+01
 -0.1079748E+01
 -0.1066744E+01
 -0.1055743E+01
 -0.1046436E+01
 -0.1038563E+01
 -0.1031903E+01
 -0.1026270E+01
 -0.1021504E+01
 -0.1017473E+01
 -0.1014063E+01
 -0.1011178E+01
 -0.1008739E+01
 -0.1006675E+01
 -0.1004929E+01
 -0.1003453E+01
 -0.1002204E+01
 -0.1001148E+01
 -0.1000254E+01
 -0.9994981E+00
 -0.9988588E+00
 -0.9983181E+00
 -0.9978607E+00
 -0.9974738E+00
 -0.9971466E+00
 -0.9968698E+00
 -0.9966357E+00
 -0.9964377E+00
 -0.9962702E+00
 -0.9961285E+00
 -0.9960087E+00
 -0.9959073E+00
 -0.9958216E+00
 -0.9957491E+00
 -0.9956877E+00
 -0.9956359E+00
 -0.9955920E+00
 -0.9955549E+00
 -0.9955235E+00
 -0.9954969E+00
 -0.9954745E+00
 -0.9954555E+00
 -0.9954394E+00
 -0.9954258E+00
 -0.9954143E+00
 -0.9954046E+00
 -0.9953964E+00
 -0.9953894E+00
 -0.9953836E+00
 -0.9953786E+00
 -0.4976896E+02
 -0.4494036E+02
 -0.4033578E+02
 -0.3599950E+02
 -0.3196385E+02
 -0.2824904E+02
 -0.2486403E+02
 -0.2180787E+02
 -0.1907153E+02
 -0.1663977E+02
 -0.1449298E+02
 -0.1260886E+02
 -0.1096376E+02
 -0.9533798E+01
 -0.8295691E+01
 -0.7227324E+01
 -0.6308115E+01
 -0.5519227E+01
 -0.4843643E+01
 -0.4266159E+01
 -0.3773310E+01
 -0.3353259E+01
 -0.2995665E+01
 -0.2691539E+01
 -0.2433102E+01
 -0.2213645E+01
 -0.2027401E+01
 -0.1869424E+01
 -0.1735482E+01
 -0.1621959E+01
 -0.1525773E+01
 -0.1444298E+01
 -0.1375299E+01
 -0.1316876E+01
 -0.1267417E+01
 -0.1225552E+01
 -0.1190118E+01
 -0.1160132E+01
 -0.1134757E+01
 -0.1113286E+01
 -0.1095119E+01
 -0.1079748E+01
 -0.1066745E+01
 -0.1055743E+01
 -0.1046437E+01
 -0.1038564E+01
 -0.1031904E+01
 -0.1026270E+01
 -0.1021505E+01
 -0.1017473E+01
 -0.1014063E+01
 -0.1011179E+01
 -0.1008739E+01
 -0.1006675E+01
 -0.1004930E+01
 -0.1003453E+01
 -0.1002204E+01
 -0.1001148E+01
 -0.1000254E+01
 -0.9994985E+00
 -0.9988593E+00
 -0.9983186E+00
 -0.9978611E+00
 -0.9974743E+00
 -0.9971471E+00
 -0.9968703E+00
 -0.9966362E+00
 -0.9964381E+00
 -0.9962707E+00
 -0.9961290E+00
 -0.9960092E+00
 -0.9959078E+00
 -0.9958221E+00
 -0.9957495E+00
 -0.9956882E+00
 -0.9956363E+00
 -0.9955925E+00
 -0.9955553E+00
 -0.9955240E+00
 -0.9954974E+00
 -0.9954749E+00
 -0.9954560E+00
 -0.9954399E+00
 -0.9954263E+00
 -0.9954148E+00
 -0.9954051E+00
 -0.9953969E+00
 -0.9953899E+00
 -0.9953840E+00
 -0.9953790E+00
 -0.4958950E+02
 -0.4477832E+02
 -0.4019034E+02
 -0.3586970E+02
 -0.3184859E+02
 -0.2814718E+02
 -0.2477438E+02
 -0.2172924E+02
 -0.1900276E+02
 -0.1657977E+02
 -0.1444073E+02
 -0.1256340E+02
 -0.1092423E+02
 -0.9499421E+01
 -0.8265779E+01
 -0.7201263E+01
 -0.6285368E+01
 -0.5499325E+01
 -0.4826177E+01
 -0.4250775E+01
 -0.3759704E+01
 -0.3341167E+01
 -0.2984863E+01
 -0.2681834E+01
 -0.2424328E+01
 -0.2205662E+01
 -0.2020090E+01
 -0.1862682E+01
 -0.1729223E+01
 -0.1616110E+01
 -0.1520271E+01
 -0.1439089E+01
 -0.1370339E+01
 -0.1312127E+01
 -0.1262846E+01
 -0.1221132E+01
 -0.1185826E+01
 -0.1155948E+01
 -0.1130664E+01
 -0.1109270E+01
 -0.1091169E+01
 -0.1075854E+01
 -0.1062897E+01
 -0.1051936E+01
 -0.1042663E+01
 -0.1034818E+01
 -0.1028182E+01
 -0.1022569E+01
 -0.1017820E+01
 -0.1013804E+01
 -0.1010406E+01
 -0.1007532E+01
 -0.1005101E+01
 -0.1003045E+01
 -0.1001305E+01
 -0.9998343E+00
 -0.9985899E+00
 -0.9975373E+00
 -0.9966469E+00
 -0.9958938E+00
 -0.9952568E+00
 -0.9947181E+00
 -0.9942623E+00
 -0.9938769E+00
 -0.9935508E+00
 -0.9932750E+00
 -0.9930418E+00
 -0.9928445E+00
 -0.9926776E+00
 -0.9925364E+00
 -0.9924170E+00
 -0.9923160E+00
 -0.9922306E+00
 -0.9921584E+00
 -0.9920973E+00
 -0.9920456E+00
 -0.9920018E+00
 -0.9919649E+00
 -0.9919336E+00
 -0.9919071E+00
 -0.9918848E+00
 -0.9918658E+00
 -0.9918498E+00
 -0.9918362E+00
 -0.9918248E+00
 -0.9918151E+00
 -0.9918069E+00
 -0.9918000E+00
 -0.9917941E+00
 -0.9917892E+00
 -0.4958950E+02
 -0.4477832E+02
 -0.4019034E+02
 -0.3586970E+02
 -0.3184860E+02
 -0.2814719E+02
 -0.2477438E+02
 -0.2172924E+02
 -0.1900276E+02
 -0.1657977E+02
 -0.1444073E+02
 -0.1256340E+02
 -0.1092423E+02
 -0.9499422E+01
 -0.8265780E+01
 -0.7201264E+01
 -0.6285369E+01
 -0.5499325E+01
 -0.4826178E+01
 -0.4250776E+01
 -0.3759704E+01
 -0.3341168E+01
 -0.2984863E+01
 -0.2681834E+01
 -0.2424329E+01
 -0.2205663E+01
 -0.2020090E+01
 -0.1862683E+01
 -0.1729224E+01
 -0.1616110E+01
 -0.1520271E+01
 -0.1439090E+01
 -0.1370339E+01
 -0.1312127E+01
 -0.1262847E+01
 -0.1221132E+01
 -0.1185827E+01
 -0.1155948E+01
 -0.1130665E+01
 -0.1109271E+01
 -0.1091170E+01
 -0.1075855E+01
 -0.1062898E+01
 -0.1051936E+01
 -0.1042663E+01
 -0.1034819E+01
 -0.1028183E+01
 -0.1022569E+01
 -0.1017821E+01
 -0.1013804E+01
 -0.1010407E+01
 -0.1007533E+01
 -0.1005102E+01
 -0.1003045E+01
 -0.1001306E+01
 -0.9998348E+00
 -0.9985903E+00
 -0.9975377E+00
 -0.9966474E+00
 -0.9958943E+00
 -0.9952573E+00
 -0.9947186E+00
 -0.9942628E+00
 -0.9938774E+00
 -0.9935513E+00
 -0.9932755E+00
 -0.9930422E+00
 -0.9928449E+00
 -0.9926780E+00
 -0.9925369E+00
 -0.9924175E+00
 -0.9923165E+00
 -0.9922311E+00
 -0.9921588E+00
 -0.9920977E+00
 -0.9920461E+00
 -0.9920023E+00
 -0.9919654E+00
 -0.9919341E+00
 -0.9919076E+00
 -0.9918852E+00
 -0.9918663E+00
 -0.9918503E+00
 -0.9918367E+00
 -0.9918253E+00
 -0.9918156E+00
 -0.9918074E+00
 -0.9918005E+00
 -0.9917946E+00
 -0.9917896E+00
 -0.4935909E+02
 -0.4457026E+02
 -0.4000360E+02
 -0.3570303E+02
 -0.3170061E+02
 -0.2801640E+02
 -0.2465927E+02
 -0.2162827E+02
 -0.1891447E+02
 -0.1650273E+02
 -0.1437363E+02
 -0.1250502E+02
 -0.1087347E+02
 -0.9455283E+01
 -0.8227373E+01
 -0.7167803E+01
 -0.6256165E+01
 -0.5473773E+01
 -0.4803752E+01
 -0.4231025E+01
 -0.3742235E+01
 -0.3325643E+01
 -0.2970994E+01
 -0.2669373E+01
 -0.2413064E+01
 -0.2195414E+01
 -0.2010704E+01
 -0.1854028E+01
 -0.1721189E+01
 -0.1608601E+01
 -0.1513207E+01
 -0.1432403E+01
 -0.1363972E+01
 -0.1306030E+01
 -0.1256979E+01
 -0.1215458E+01
 -0.1180317E+01
 -0.1150577E+01
 -0.1125411E+01
 -0.1104116E+01
 -0.1086099E+01
 -0.1070855E+01
 -0.1057959E+01
 -0.1047048E+01
 -0.1037818E+01
 -0.1030010E+01
 -0.1023405E+01
 -0.1017818E+01
 -0.1013091E+01
 -0.1009093E+01
 -0.1005711E+01
 -0.1002851E+01
 -0.1000431E+01
 -0.9983843E+00
 -0.9966531E+00
 -0.9951887E+00
 -0.9939500E+00
 -0.9929023E+00
 -0.9920161E+00
 -0.9912665E+00
 -0.9906325E+00
 -0.9900962E+00
 -0.9896426E+00
 -0.9892589E+00
 -0.9889344E+00
 -0.9886599E+00
 -0.9884277E+00
 -0.9882313E+00
 -0.9880652E+00
 -0.9879247E+00
 -0.9878058E+00
 -0.9877054E+00
 -0.9876203E+00
 -0.9875484E+00
 -0.9874876E+00
 -0.9874361E+00
 -0.9873926E+00
 -0.9873558E+00
 -0.9873247E+00
 -0.9872983E+00
 -0.9872761E+00
 -0.9872572E+00
 -0.9872413E+00
 -0.9872278E+00
 -0.9872164E+00
 -0.9872068E+00
 -0.9871986E+00
 -0.9871917E+00
 -0.9871858E+00
 -0.9871809E+00
 -0.4935909E+02
 -0.4457026E+02
 -0.4000360E+02
 -0.3570303E+02
 -0.3170061E+02
 -0.2801640E+02
 -0.2465927E+02
 -0.2162828E+02
 -0.1891447E+02
 -0.1650273E+02
 -0.1437363E+02
 -0.1250502E+02
 -0.1087347E+02
 -0.9455284E+01
 -0.8227373E+01
 -0.7167804E+01
 -0.6256165E+01
 -0.5473773E+01
 -0.4803753E+01
 -0.4231025E+01
 -0.3742235E+01
 -0.3325644E+01
 -0.2970995E+01
 -0.2669373E+01
 -0.2413064E+01
 -0.2195415E+01
 -0.2010705E+01
 -0.1854028E+01
 -0.1721189E+01
 -0.1608601E+01
 -0.1513208E+01
 -0.1432403E+01
 -0.1363972E+01
 -0.1306031E+01
 -0.1256979E+01
 -0.1215459E+01
 -0.1180317E+01
 -0.1150578E+01
 -0.1125411E+01
 -0.1104117E+01
 -0.1086100E+01
 -0.1070856E+01
 -0.1057959E+01
 -0.1047049E+01
 -0.1037819E+01
 -0.1030011E+01
 -0.1023406E+01
 -0.1017818E+01
 -0.1013092E+01
 -0.1009094E+01
 -0.1005712E+01
 -0.1002851E+01
 -0.1000432E+01
 -0.9983850E+00
 -0.9966537E+00
 -0.9951893E+00
 -0.9939507E+00
 -0.9929029E+00
 -0.9920167E+00
 -0.9912671E+00
 -0.9906331E+00
 -0.9900969E+00
 -0.9896432E+00
 -0.9892595E+00
 -0.9889350E+00
 -0.9886605E+00
 -0.9884284E+00
 -0.9882320E+00
 -0.9880658E+00
 -0.9879254E+00
 -0.9878065E+00
 -0.9877059E+00
 -0.9876210E+00
 -0.9875490E+00
 -0.9874882E+00
 -0.9874368E+00
 -0.9873932E+00
 -0.9873564E+00
 -0.9873253E+00
 -0.9872990E+00
 -0.9872767E+00
 -0.9872578E+00
 -0.9872419E+00
 -0.9872284E+00
 -0.9872170E+00
 -0.9872074E+00
 -0.9871992E+00
 -0.9871923E+00
 -0.9871865E+00
 -0.9871815E+00
 -0.4907795E+02
 -0.4431641E+02
 -0.3977575E+02
 -0.3549968E+02
 -0.3152006E+02
 -0.2785683E+02
 -0.2451882E+02
 -0.2150509E+02
 -0.1880674E+02
 -0.1640874E+02
 -0.1429176E+02
 -0.1243380E+02
 -0.1081154E+02
 -0.9401429E+01
 -0.8180512E+01
 -0.7126978E+01
 -0.6220531E+01
 -0.5442596E+01
 -0.4776392E+01
 -0.4206926E+01
 -0.3720920E+01
 -0.3306702E+01
 -0.2954072E+01
 -0.2654169E+01
 -0.2399320E+01
 -0.2182910E+01
 -0.1999252E+01
 -0.1843468E+01
 -0.1711385E+01
 -0.1599439E+01
 -0.1504589E+01
 -0.1424245E+01
 -0.1356203E+01
 -0.1298592E+01
 -0.1249820E+01
 -0.1208535E+01
 -0.1173594E+01
 -0.1144024E+01
 -0.1119001E+01
 -0.1097828E+01
 -0.1079913E+01
 -0.1064756E+01
 -0.1051933E+01
 -0.1041085E+01
 -0.1031907E+01
 -0.1024144E+01
 -0.1017576E+01
 -0.1012021E+01
 -0.1007321E+01
 -0.1003346E+01
 -0.9999834E+00
 -0.9971392E+00
 -0.9947332E+00
 -0.9926981E+00
 -0.9909768E+00
 -0.9895207E+00
 -0.9882891E+00
 -0.9872473E+00
 -0.9863662E+00
 -0.9856209E+00
 -0.9849905E+00
 -0.9844573E+00
 -0.9840062E+00
 -0.9836247E+00
 -0.9833021E+00
 -0.9830291E+00
 -0.9827982E+00
 -0.9826030E+00
 -0.9824378E+00
 -0.9822981E+00
 -0.9821799E+00
 -0.9820800E+00
 -0.9819955E+00
 -0.9819239E+00
 -0.9818634E+00
 -0.9818123E+00
 -0.9817690E+00
 -0.9817324E+00
 -0.9817015E+00
 -0.9816753E+00
 -0.9816532E+00
 -0.9816344E+00
 -0.9816186E+00
 -0.9816052E+00
 -0.9815938E+00
 -0.9815843E+00
 -0.9815761E+00
 -0.9815693E+00
 -0.9815634E+00
 -0.9815586E+00
 -0.4907796E+02
 -0.4431641E+02
 -0.3977575E+02
 -0.3549968E+02
 -0.3152006E+02
 -0.2785683E+02
 -0.2451882E+02
 -0.2150509E+02
 -0.1880674E+02
 -0.1640874E+02
 -0.1429176E+02
 -0.1243380E+02
 -0.1081154E+02
 -0.9401430E+01
 -0.8180513E+01
 -0.7126979E+01
 -0.6220532E+01
 -0.5442597E+01
 -0.4776393E+01
 -0.4206927E+01
 -0.3720921E+01
 -0.3306702E+01
 -0.2954073E+01
 -0.2654170E+01
 -0.2399321E+01
 -0.2182911E+01
 -0.1999252E+01
 -0.1843469E+01
 -0.1711386E+01
 -0.1599440E+01
 -0.1504589E+01
 -0.1424245E+01
 -0.1356204E+01
 -0.1298592E+01
 -0.1249820E+01
 -0.1208536E+01
 -0.1173595E+01
 -0.1144024E+01
 -0.1119002E+01
 -0.1097829E+01
 -0.1079914E+01
 -0.1064757E+01
 -0.1051934E+01
 -0.1041085E+01
 -0.1031908E+01
 -0.1024144E+01
 -0.1017577E+01
 -0.1012021E+01
 -0.1007322E+01
 -0.1003347E+01
 -0.9999840E+00
 -0.9971396E+00
 -0.9947338E+00
 -0.9926987E+00
 -0.9909773E+00
 -0.9895212E+00
 -0.9882897E+00
 -0.9872479E+00
 -0.9863667E+00
 -0.9856215E+00
 -0.9849910E+00
 -0.9844578E+00
 -0.9840068E+00
 -0.9836252E+00
 -0.9833026E+00
 -0.9830296E+00
 -0.9827988E+00
 -0.9826035E+00
 -0.9824383E+00
 -0.9822986E+00
 -0.9821805E+00
 -0.9820805E+00
 -0.9819960E+00
 -0.9819245E+00
 -0.9818640E+00
 -0.9818128E+00
 -0.9817696E+00
 -0.9817330E+00
 -0.9817020E+00
 -0.9816758E+00
 -0.9816537E+00
 -0.9816349E+00
 -0.9816191E+00
 -0.9816057E+00
 -0.9815944E+00
 -0.9815848E+00
 -0.9815767E+00
 -0.9815698E+00
 -0.9815640E+00
 -0.9815591E+00
 -0.4874640E+02
 -0.4401701E+02
 -0.3950703E+02
 -0.3525985E+02
 -0.3130712E+02
 -0.2766863E+02
 -0.2435317E+02
 -0.2135980E+02
 -0.1867968E+02
 -0.1629788E+02
 -0.1419521E+02
 -0.1234980E+02
 -0.1073850E+02
 -0.9337915E+01
 -0.8125247E+01
 -0.7078830E+01
 -0.6178507E+01
 -0.5405828E+01
 -0.4744124E+01
 -0.4178505E+01
 -0.3695783E+01
 -0.3284363E+01
 -0.2934116E+01
 -0.2636238E+01
 -0.2383111E+01
 -0.2168163E+01
 -0.1985746E+01
 -0.1831014E+01
 -0.1699824E+01
 -0.1588634E+01
 -0.1494424E+01
 -0.1414623E+01
 -0.1347041E+01
 -0.1289819E+01
 -0.1241376E+01
 -0.1200371E+01
 -0.1165666E+01
 -0.1136295E+01
 -0.1111442E+01
 -0.1090412E+01
 -0.1072618E+01
 -0.1057563E+01
 -0.1044827E+01
 -0.1034052E+01
 -0.1024936E+01
 -0.1017225E+01
 -0.1010702E+01
 -0.1005184E+01
 -0.1000516E+01
 -0.9965680E+00
 -0.9932281E+00
 -0.9904030E+00
 -0.9880133E+00
 -0.9859920E+00
 -0.9842823E+00
 -0.9828361E+00
 -0.9816127E+00
 -0.9805781E+00
 -0.9797029E+00
 -0.9789626E+00
 -0.9783365E+00
 -0.9778068E+00
 -0.9773588E+00
 -0.9769799E+00
 -0.9766594E+00
 -0.9763883E+00
 -0.9761590E+00
 -0.9759650E+00
 -0.9758010E+00
 -0.9756622E+00
 -0.9755449E+00
 -0.9754456E+00
 -0.9753616E+00
 -0.9752906E+00
 -0.9752305E+00
 -0.9751797E+00
 -0.9751368E+00
 -0.9751004E+00
 -0.9750696E+00
 -0.9750437E+00
 -0.9750217E+00
 -0.9750030E+00
 -0.9749873E+00
 -0.9749740E+00
 -0.9749627E+00
 -0.9749532E+00
 -0.9749451E+00
 -0.9749383E+00
 -0.9749326E+00
 -0.9749277E+00
 -0.4874640E+02
 -0.4401701E+02
 -0.3950703E+02
 -0.3525985E+02
 -0.3130712E+02
 -0.2766864E+02
 -0.2435317E+02
 -0.2135980E+02
 -0.1867968E+02
 -0.1629789E+02
 -0.1419521E+02
 -0.1234980E+02
 -0.1073850E+02
 -0.9337915E+01
 -0.8125247E+01
 -0.7078830E+01
 -0.6178507E+01
 -0.5405828E+01
 -0.4744124E+01
 -0.4178506E+01
 -0.3695783E+01
 -0.3284363E+01
 -0.2934116E+01
 -0.2636239E+01
 -0.2383111E+01
 -0.2168163E+01
 -0.1985746E+01
 -0.1831015E+01
 -0.1699824E+01
 -0.1588634E+01
 -0.1494424E+01
 -0.1414623E+01
 -0.1347041E+01
 -0.1289819E+01
 -0.1241376E+01
 -0.1200371E+01
 -0.1165666E+01
 -0.1136296E+01
 -0.1111442E+01
 -0.1090412E+01
 -0.1072618E+01
 -0.1057564E+01
 -0.1044827E+01
 -0.1034052E+01
 -0.1024937E+01
 -0.1017225E+01
 -0.1010702E+01
 -0.1005184E+01
 -0.1000516E+01
 -0.9965681E+00
 -0.9932282E+00
 -0.9904031E+00
 -0.9880134E+00
 -0.9859921E+00
 -0.9842824E+00
 -0.9828361E+00
 -0.9816129E+00
 -0.9805782E+00
 -0.9797029E+00
 -0.9789627E+00
 -0.9783365E+00
 -0.9778069E+00
 -0.9773589E+00
 -0.9769800E+00
 -0.9766595E+00
 -0.9763884E+00
 -0.9761591E+00
 -0.9759651E+00
 -0.9758011E+00
 -0.9756624E+00
 -0.9755450E+00
 -0.9754457E+00
 -0.9753618E+00
 -0.9752907E+00
 -0.9752306E+00
 -0.9751799E+00
 -0.9751369E+00
 -0.9751005E+00
 -0.9750698E+00
 -0.9750437E+00
 -0.9750217E+00
 -0.9750031E+00
 -0.9749874E+00
 -0.9749741E+00
 -0.9749628E+00
 -0.9749533E+00
 -0.9749452E+00
 -0.9749385E+00
 -0.9749327E+00
 -0.9749278E+00
 -0.4836474E+02
 -0.4367239E+02
 -0.3919772E+02
 -0.3498379E+02
 -0.3106200E+02
 -0.2745201E+02
 -0.2416250E+02
 -0.2119257E+02
 -0.1853343E+02
 -0.1617028E+02
 -0.1408407E+02
 -0.1225311E+02
 -0.1065442E+02
 -0.9264805E+01
 -0.8061631E+01
 -0.7023407E+01
 -0.6130133E+01
 -0.5363503E+01
 -0.4706980E+01
 -0.4145790E+01
 -0.3666847E+01
 -0.3258647E+01
 -0.2911143E+01
 -0.2615597E+01
 -0.2364452E+01
 -0.2151187E+01
 -0.1970198E+01
 -0.1816678E+01
 -0.1686515E+01
 -0.1576195E+01
 -0.1482723E+01
 -0.1403547E+01
 -0.1336494E+01
 -0.1279720E+01
 -0.1231656E+01
 -0.1190972E+01
 -0.1156539E+01
 -0.1127398E+01
 -0.1102739E+01
 -0.1081874E+01
 -0.1064219E+01
 -0.1049283E+01
 -0.1036646E+01
 -0.1025955E+01
 -0.1016911E+01
 -0.1009260E+01
 -0.1002788E+01
 -0.9973133E+00
 -0.9926822E+00
 -0.9887647E+00
 -0.9854510E+00
 -0.9826480E+00
 -0.9802770E+00
 -0.9782715E+00
 -0.9765751E+00
 -0.9751403E+00
 -0.9739265E+00
 -0.9729000E+00
 -0.9720316E+00
 -0.9712971E+00
 -0.9706759E+00
 -0.9701504E+00
 -0.9697059E+00
 -0.9693300E+00
 -0.9690120E+00
 -0.9687430E+00
 -0.9685155E+00
 -0.9683231E+00
 -0.9681603E+00
 -0.9680226E+00
 -0.9679062E+00
 -0.9678077E+00
 -0.9677244E+00
 -0.9676539E+00
 -0.9675943E+00
 -0.9675439E+00
 -0.9675012E+00
 -0.9674652E+00
 -0.9674346E+00
 -0.9674089E+00
 -0.9673870E+00
 -0.9673686E+00
 -0.9673530E+00
 -0.9673398E+00
 -0.9673286E+00
 -0.9673191E+00
 -0.9673111E+00
 -0.9673044E+00
 -0.9672987E+00
 -0.9672939E+00
 -0.4836474E+02
 -0.4367239E+02
 -0.3919772E+02
 -0.3498379E+02
 -0.3106200E+02
 -0.2745201E+02
 -0.2416250E+02
 -0.2119257E+02
 -0.1853344E+02
 -0.1617028E+02
 -0.1408407E+02
 -0.1225311E+02
 -0.1065442E+02
 -0.9264806E+01
 -0.8061632E+01
 -0.7023407E+01
 -0.6130134E+01
 -0.5363503E+01
 -0.4706981E+01
 -0.4145791E+01
 -0.3666847E+01
 -0.3258648E+01
 -0.2911144E+01
 -0.2615598E+01
 -0.2364453E+01
 -0.2151188E+01
 -0.1970198E+01
 -0.1816679E+01
 -0.1686515E+01
 -0.1576196E+01
 -0.1482724E+01
 -0.1403547E+01
 -0.1336495E+01
 -0.1279721E+01
 -0.1231657E+01
 -0.1190973E+01
 -0.1156539E+01
 -0.1127399E+01
 -0.1102740E+01
 -0.1081874E+01
 -0.1064220E+01
 -0.1049283E+01
 -0.1036646E+01
 -0.1025956E+01
 -0.1016912E+01
 -0.1009261E+01
 -0.1002789E+01
 -0.9973140E+00
 -0.9926829E+00
 -0.9887654E+00
 -0.9854517E+00
 -0.9826487E+00
 -0.9802777E+00
 -0.9782723E+00
 -0.9765759E+00
 -0.9751410E+00
 -0.9739273E+00
 -0.9729007E+00
 -0.9720324E+00
 -0.9712979E+00
 -0.9706766E+00
 -0.9701511E+00
 -0.9697067E+00
 -0.9693307E+00
 -0.9690127E+00
 -0.9687437E+00
 -0.9685162E+00
 -0.9683238E+00
 -0.9681610E+00
 -0.9680234E+00
 -0.9679069E+00
 -0.9678084E+00
 -0.9677251E+00
 -0.9676546E+00
 -0.9675950E+00
 -0.9675446E+00
 -0.9675019E+00
 -0.9674659E+00
 -0.9674354E+00
 -0.9674096E+00
 -0.9673877E+00
 -0.9673693E+00
 -0.9673537E+00
 -0.9673405E+00
 -0.9673293E+00
 -0.9673198E+00
 -0.9673119E+00
 -0.9673051E+00
 -0.9672994E+00
 -0.9672946E+00
 -0.4793339E+02
 -0.4328289E+02
 -0.3884813E+02
 -0.3467178E+02
 -0.3078497E+02
 -0.2720717E+02
 -0.2394700E+02
 -0.2100356E+02
 -0.1836814E+02
 -0.1602607E+02
 -0.1395846E+02
 -0.1214383E+02
 -0.1055940E+02
 -0.9182175E+01
 -0.7989732E+01
 -0.6960767E+01
 -0.6075460E+01
 -0.5315667E+01
 -0.4665000E+01
 -0.4108815E+01
 -0.3634143E+01
 -0.3229585E+01
 -0.2885180E+01
 -0.2592270E+01
 -0.2343364E+01
 -0.2132001E+01
 -0.1952626E+01
 -0.1800476E+01
 -0.1671474E+01
 -0.1562138E+01
 -0.1469499E+01
 -0.1391029E+01
 -0.1324575E+01
 -0.1268307E+01
 -0.1220672E+01
 -0.1180351E+01
 -0.1146224E+01
 -0.1117344E+01
 -0.1092904E+01
 -0.1072225E+01
 -0.1054728E+01
 -0.1039925E+01
 -0.1027400E+01
 -0.1016805E+01
 -0.1007842E+01
 -0.1000259E+01
 -0.9938449E+00
 -0.9884189E+00
 -0.9838290E+00
 -0.9799465E+00
 -0.9766623E+00
 -0.9738843E+00
 -0.9715345E+00
 -0.9695469E+00
 -0.9678656E+00
 -0.9664435E+00
 -0.9652407E+00
 -0.9642233E+00
 -0.9633626E+00