 TITLE = "VectorSurfaceData"
VARIABLES = "x" "y" "z"
  "FullConvective"
  "FourierOnly"
  "Radiant"
  "Balance"
 ZONE T=Bnd4 DATAPACKING=Block
 N=356
 E=264
 ZONETYPE=FEQUADRILATERAL
 VarLocation=([4-7]=CellCentered)
 -0.1000000E+01
 -0.9994853E+00
 -0.1000000E+01
 -0.9994834E+00
 -0.1000000E+01
 -0.9994834E+00
 -0.1000000E+01
 -0.9994860E+00
 -0.9979451E+00
 -0.9979414E+00
 -0.9979414E+00
 -0.9979452E+00
 -0.9953786E+00
 -0.9953778E+00
 -0.9953778E+00
 -0.9953790E+00
 -0.9917892E+00
 -0.9917862E+00
 -0.9917862E+00
 -0.9917896E+00
 -0.9871809E+00
 -0.9871798E+00
 -0.9871798E+00
 -0.9871815E+00
 -0.9815586E+00
 -0.9815550E+00
 -0.9815550E+00
 -0.9815591E+00
 -0.9749277E+00
 -0.9749275E+00
 -0.9749275E+00
 -0.9749278E+00
 -0.9672939E+00
 -0.9672911E+00
 -0.9672911E+00
 -0.9672946E+00
 -0.9586671E+00
 -0.9586636E+00
 -0.9586636E+00
 -0.9586675E+00
 -0.9490548E+00
 -0.9490536E+00
 -0.9490536E+00
 -0.9490556E+00
 -0.9384679E+00
 -0.9384673E+00
 -0.9384673E+00
 -0.9384682E+00
 -0.9269156E+00
 -0.9269134E+00
 -0.9269134E+00
 -0.9269164E+00
 -0.9144118E+00
 -0.9144084E+00
 -0.9144084E+00
 -0.9144123E+00
 -0.9009688E+00
 -0.9009644E+00
 -0.9009644E+00
 -0.9009686E+00
 -0.8865987E+00
 -0.8865950E+00
 -0.8865950E+00
 -0.8865986E+00
 -0.8713178E+00
 -0.8713146E+00
 -0.8713147E+00
 -0.8713185E+00
 -0.8551418E+00
 -0.8551390E+00
 -0.8551390E+00
 -0.8551422E+00
 -0.8380879E+00
 -0.8380844E+00
 -0.8380844E+00
 -0.8380877E+00
 -0.8201720E+00
 -0.8201686E+00
 -0.8201686E+00
 -0.8201717E+00
 -0.8014134E+00
 -0.8014100E+00
 -0.8014100E+00
 -0.8014132E+00
 -0.7818312E+00
 -0.7818277E+00
 -0.7818277E+00
 -0.7818308E+00
 -0.7614457E+00
 -0.7614422E+00
 -0.7614422E+00
 -0.7614459E+00
 -0.7402778E+00
 -0.7402742E+00
 -0.7402742E+00
 -0.7402774E+00
 -0.7183493E+00
 -0.7183456E+00
 -0.7183456E+00
 -0.7183490E+00
 -0.6956825E+00
 -0.6956789E+00
 -0.6956789E+00
 -0.6956822E+00
 -0.6723008E+00
 -0.6722974E+00
 -0.6722974E+00
 -0.6723003E+00
 -0.6482282E+00
 -0.6482252E+00
 -0.6482252E+00
 -0.6482283E+00
 -0.6234896E+00
 -0.6234869E+00
 -0.6234868E+00
 -0.6234893E+00
 -0.5981104E+00
 -0.5981078E+00
 -0.5981078E+00
 -0.5981102E+00
 -0.5721166E+00
 -0.5721142E+00
 -0.5721142E+00
 -0.5721163E+00
 -0.5455348E+00
 -0.5455325E+00
 -0.5455325E+00
 -0.5455346E+00
 -0.5183920E+00
 -0.5183903E+00
 -0.5183902E+00
 -0.5183921E+00
 -0.4907171E+00
 -0.4907153E+00
 -0.4907153E+00
 -0.4907174E+00
 -0.4625380E+00
 -0.4625360E+00
 -0.4625360E+00
 -0.4625379E+00
 -0.4338838E+00
 -0.4338816E+00
 -0.4338816E+00
 -0.4338835E+00
 -0.4047830E+00
 -0.4047815E+00
 -0.4047815E+00
 -0.4047831E+00
 -0.3752666E+00
 -0.3752657E+00
 -0.3752656E+00
 -0.3752668E+00
 -0.3453649E+00
 -0.3453646E+00
 -0.3453646E+00
 -0.3453649E+00
 -0.3151079E+00
 -0.3151075E+00
 -0.3151075E+00
 -0.3151081E+00
 -0.2845274E+00
 -0.2845263E+00
 -0.2845263E+00
 -0.2845274E+00
 -0.2536543E+00
 -0.2536536E+00
 -0.2536536E+00
 -0.2536544E+00
 -0.2225209E+00
 -0.2225208E+00
 -0.2225208E+00
 -0.2225209E+00
 -0.1911585E+00
 -0.1911578E+00
 -0.1911578E+00
 -0.1911586E+00
 -0.1595998E+00
 -0.1595996E+00
 -0.1595996E+00
 -0.1595998E+00
 -0.1278771E+00
 -0.1278767E+00
 -0.1278767E+00
 -0.1278771E+00
 -0.9602296E-01
 -0.9602289E-01
 -0.9602289E-01
 -0.9602299E-01
 -0.6407019E-01
 -0.6406996E-01
 -0.6406996E-01
 -0.6407019E-01
 -0.3205154E-01
 -0.3205148E-01
 -0.3205148E-01
 -0.3205156E-01
  0.0000000E+00
  0.0000000E+00
  0.8881784E-15
  0.0000000E+00
  0.2886150E-01
  0.2886150E-01
  0.2886150E-01
  0.2886150E-01
  0.6261033E-01
  0.6261033E-01
  0.6261033E-01
  0.6261033E-01
  0.1020712E+00
  0.1020712E+00
  0.1020712E+00
  0.1020712E+00
  0.1482067E+00
  0.1482067E+00
  0.1482067E+00
  0.1482067E+00
  0.2021406E+00
  0.2021406E+00
  0.2021406E+00
  0.2021406E+00
  0.2651834E+00
  0.2651834E+00
  0.2651834E+00
  0.2651834E+00
  0.3388632E+00
  0.3388632E+00
  0.3388632E+00
  0.3388632E+00
  0.4249609E+00
  0.4249609E+00
  0.4249609E+00
  0.4249609E+00
  0.5255501E+00
  0.5255501E+00
  0.5255501E+00
  0.5255501E+00
  0.6430441E+00
  0.6430441E+00
  0.6430441E+00
  0.6430441E+00
  0.7802481E+00
  0.7802481E+00
  0.7802481E+00
  0.7802481E+00
  0.9404202E+00
  0.9404202E+00
  0.9404202E+00
  0.9404202E+00
  0.1127339E+01
  0.1127339E+01
  0.1127339E+01
  0.1127339E+01
  0.1345381E+01
  0.1345381E+01
  0.1345381E+01
  0.1345381E+01
  0.1599607E+01
  0.1599607E+01
  0.1599607E+01
  0.1599607E+01
  0.1895853E+01
  0.1895853E+01
  0.1895853E+01
  0.1895853E+01
  0.2240842E+01
  0.2240842E+01
  0.2240842E+01
  0.2240842E+01
  0.2642286E+01
  0.2642286E+01
  0.2642286E+01
  0.2642286E+01
  0.3109011E+01
  0.3109011E+01
  0.3109011E+01
  0.3109011E+01
  0.3651075E+01
  0.3651075E+01
  0.3651075E+01
  0.3651075E+01
  0.4279886E+01
  0.4279886E+01
  0.4279886E+01
  0.4279886E+01
  0.5008316E+01
  0.5008316E+01
  0.5008316E+01
  0.5008316E+01
  0.5850793E+01
  0.5850793E+01
  0.5850793E+01
  0.5850793E+01
  0.6823364E+01
  0.6823364E+01
  0.6823364E+01
  0.6823364E+01
  0.7943715E+01
  0.7943715E+01
  0.7943715E+01
  0.7943715E+01
  0.9231117E+01
  0.9231117E+01
  0.9231117E+01
  0.9231117E+01
  0.1070629E+02
  0.1070629E+02
  0.1070629E+02
  0.1070629E+02
  0.1239113E+02
  0.1239113E+02
  0.1239113E+02
  0.1239113E+02
  0.1430832E+02
  0.1430832E+02
  0.1430832E+02
  0.1430832E+02
  0.1648070E+02
  0.1648070E+02
  0.1648070E+02
  0.1648070E+02
  0.1893051E+02
  0.1893051E+02
  0.1893051E+02
  0.1893051E+02
  0.2167831E+02
  0.2167831E+02
  0.2167831E+02
  0.2167831E+02
  0.2474178E+02
  0.2474178E+02
  0.2474178E+02
  0.2474178E+02
  0.2813426E+02
  0.2813426E+02
  0.2813426E+02
  0.2813426E+02
  0.3186315E+02
  0.3186315E+02
  0.3186315E+02
  0.3186315E+02
  0.3592838E+02
  0.3592838E+02
  0.3592838E+02
  0.3592838E+02
  0.4032088E+02
  0.4032088E+02
  0.4032088E+02
  0.4032088E+02
  0.4502143E+02
  0.4502143E+02
  0.4502143E+02
  0.4502143E+02
  0.5000000E+02
  0.5000000E+02
  0.5000000E+02
  0.5000000E+02
  0.0000000E+00
  0.3205154E-01
  0.0000000E+00
  0.3205148E-01
  0.0000000E+00
  0.3205148E-01
  0.0000000E+00
  0.3205156E-01
  0.6407019E-01
  0.6406996E-01
  0.6406996E-01
  0.6407019E-01
  0.9602296E-01
  0.9602289E-01
  0.9602289E-01
  0.9602299E-01
  0.1278771E+00
  0.1278767E+00
  0.1278767E+00
  0.1278771E+00
  0.1595998E+00
  0.1595996E+00
  0.1595996E+00
  0.1595998E+00
  0.1911585E+00
  0.1911578E+00
  0.1911578E+00
  0.1911586E+00
  0.2225209E+00
  0.2225208E+00
  0.2225208E+00
  0.2225209E+00
  0.2536543E+00
  0.2536536E+00
  0.2536536E+00
  0.2536544E+00
  0.2845274E+00
  0.2845263E+00
  0.2845263E+00
  0.2845274E+00
  0.3151079E+00
  0.3151075E+00
  0.3151075E+00
  0.3151081E+00
  0.3453649E+00
  0.3453646E+00
  0.3453646E+00
  0.3453649E+00
  0.3752666E+00
  0.3752657E+00
  0.3752656E+00
  0.3752668E+00
  0.4047830E+00
  0.4047815E+00
  0.4047815E+00
  0.4047831E+00
  0.4338838E+00
  0.4338816E+00
  0.4338816E+00
  0.4338835E+00
  0.4625380E+00
  0.4625360E+00
  0.4625360E+00
  0.4625379E+00
  0.4907171E+00
  0.4907153E+00
  0.4907153E+00
  0.4907174E+00
  0.5183920E+00
  0.5183903E+00
  0.5183902E+00
  0.5183921E+00
  0.5455348E+00
  0.5455325E+00
  0.5455325E+00
  0.5455346E+00
  0.5721166E+00
  0.5721142E+00
  0.5721142E+00
  0.5721163E+00
  0.5981104E+00
  0.5981078E+00
  0.5981078E+00
  0.5981102E+00
  0.6234896E+00
  0.6234869E+00
  0.6234868E+00
  0.6234893E+00
  0.6482282E+00
  0.6482252E+00
  0.6482252E+00
  0.6482283E+00
  0.6723008E+00
  0.6722974E+00
  0.6722974E+00
  0.6723003E+00
  0.6956825E+00
  0.6956789E+00
  0.6956789E+00
  0.6956822E+00
  0.7183493E+00
  0.7183456E+00
  0.7183456E+00
  0.7183490E+00
  0.7402778E+00
  0.7402742E+00
  0.7402742E+00
  0.7402774E+00
  0.7614457E+00
  0.7614422E+00
  0.7614422E+00
  0.7614459E+00
  0.7818312E+00
  0.7818277E+00
  0.7818277E+00
  0.7818308E+00
  0.8014134E+00
  0.8014100E+00
  0.8014100E+00
  0.8014132E+00
  0.8201720E+00
  0.8201686E+00
  0.8201686E+00
  0.8201717E+00
  0.8380879E+00
  0.8380844E+00
  0.8380844E+00
  0.8380877E+00
  0.8551418E+00
  0.8551390E+00
  0.8551390E+00
  0.8551422E+00
  0.8713178E+00
  0.8713146E+00
  0.8713147E+00
  0.8713185E+00
  0.8865987E+00
  0.8865950E+00
  0.8865950E+00
  0.8865986E+00
  0.9009688E+00
  0.9009644E+00
  0.9009644E+00
  0.9009686E+00
  0.9144118E+00
  0.9144084E+00
  0.9144084E+00
  0.9144123E+00
  0.9269156E+00
  0.9269134E+00
  0.9269134E+00
  0.9269164E+00
  0.9384679E+00
  0.9384673E+00
  0.9384673E+00
  0.9384682E+00
  0.9490548E+00
  0.9490536E+00
  0.9490536E+00
  0.9490556E+00
  0.9586671E+00
  0.9586636E+00
  0.9586636E+00
  0.9586675E+00
  0.9672939E+00
  0.9672911E+00
  0.9672911E+00
  0.9672946E+00
  0.9749277E+00
  0.9749275E+00
  0.9749275E+00
  0.9749278E+00
  0.9815586E+00
  0.9815550E+00
  0.9815550E+00
  0.9815591E+00
  0.9871809E+00
  0.9871798E+00
  0.9871798E+00
  0.9871815E+00
  0.9917892E+00
  0.9917862E+00
  0.9917862E+00
  0.9917896E+00
  0.9953786E+00
  0.9953778E+00
  0.9953778E+00
  0.9953790E+00
  0.9979451E+00
  0.9979414E+00
  0.9979414E+00
  0.9979452E+00
  0.9994853E+00
  0.9994834E+00
  0.9994834E+00
  0.9994860E+00
  0.1000000E+01
  0.1000000E+01
  0.1000000E+01
  0.1000000E+01
  0.1000000E+01
  0.1000000E+01
  0.1000000E+01
  0.1000000E+01
  0.1000000E+01
  0.1000000E+01
  0.1000000E+01
  0.1000000E+01
  0.1000000E+01
  0.1000000E+01
  0.1000000E+01
  0.1000000E+01
  0.1000000E+01
  0.1000000E+01
  0.1000000E+01
  0.1000000E+01
  0.1000000E+01
  0.1000000E+01
  0.1000000E+01
  0.1000000E+01
  0.1000000E+01
  0.1000000E+01
  0.1000000E+01
  0.1000000E+01
  0.1000000E+01
  0.1000000E+01
  0.1000000E+01
  0.1000000E+01
  0.1000000E+01
  0.1000000E+01
  0.1000000E+01
  0.1000000E+01
  0.1000000E+01
  0.1000000E+01
  0.1000000E+01
  0.1000000E+01
  0.1000000E+01
  0.1000000E+01
  0.1000000E+01
  0.1000000E+01
  0.1000000E+01
  0.1000000E+01
  0.1000000E+01
  0.1000000E+01
  0.1000000E+01
  0.1000000E+01
  0.1000000E+01
  0.1000000E+01
  0.1000000E+01
  0.1000000E+01
  0.1000000E+01
  0.1000000E+01
  0.1000000E+01
  0.1000000E+01
  0.1000000E+01
  0.1000000E+01
  0.1000000E+01
  0.1000000E+01
  0.1000000E+01
  0.1000000E+01
  0.1000000E+01
  0.1000000E+01
  0.1000000E+01
  0.1000000E+01
  0.1000000E+01
  0.1000000E+01
  0.1000000E+01
  0.1000000E+01
  0.1000000E+01
  0.1000000E+01
  0.1000000E+01
  0.1000000E+01
  0.1000000E+01
  0.1000000E+01
  0.1000000E+01
  0.1000000E+01
  0.1000000E+01
  0.1000000E+01
  0.1000000E+01
  0.1000000E+01
  0.1000000E+01
  0.1000000E+01
  0.1000000E+01
  0.1000000E+01
  0.1000000E+01
  0.1000000E+01
  0.1000000E+01
  0.1000000E+01
  0.1000000E+01
  0.1000000E+01
  0.1000000E+01
  0.1000000E+01
  0.1000000E+01
  0.1000000E+01
  0.1000000E+01
  0.1000000E+01
  0.1000000E+01
  0.1000000E+01
  0.1000000E+01
  0.1000000E+01
  0.1000000E+01
  0.1000000E+01
  0.1000000E+01
  0.1000000E+01
  0.1000000E+01
  0.1000000E+01
  0.1000000E+01
  0.1000000E+01
  0.1000000E+01
  0.1000000E+01
  0.1000000E+01
  0.1000000E+01
  0.1000000E+01
  0.1000000E+01
  0.1000000E+01
  0.1000000E+01
  0.1000000E+01
  0.1000000E+01
  0.1000000E+01
  0.1000000E+01
  0.1000000E+01
  0.1000000E+01
  0.1000000E+01
  0.1000000E+01
  0.1000000E+01
  0.1000000E+01
  0.1000000E+01
  0.1000000E+01
  0.1000000E+01
  0.1000000E+01
  0.1000000E+01
  0.1000000E+01
  0.1000000E+01
  0.1000000E+01
  0.1000000E+01
  0.1000000E+01
  0.1000000E+01
  0.1000000E+01
  0.1000000E+01
  0.1000000E+01
  0.1000000E+01
  0.1000000E+01
  0.1000000E+01
  0.1000000E+01
  0.1000000E+01
  0.1000000E+01
  0.1000000E+01
  0.1000000E+01
  0.1000000E+01
  0.1000000E+01
  0.1000000E+01
  0.1000000E+01
  0.1000000E+01
  0.1000000E+01
  0.1000000E+01
  0.1000000E+01
  0.0000000E+00
  0.0000000E+00
  0.1000000E-01
  0.1000000E-01
  0.2000000E-01
  0.2000000E-01
  0.3000000E-01
  0.3000000E-01
  0.0000000E+00
  0.1000000E-01
  0.2000000E-01
  0.3000000E-01
  0.0000000E+00
  0.1000000E-01
  0.2000000E-01
  0.3000000E-01
  0.0000000E+00
  0.1000000E-01
  0.2000000E-01
  0.3000000E-01
  0.0000000E+00
  0.1000000E-01
  0.2000000E-01
  0.3000000E-01
  0.0000000E+00
  0.1000000E-01
  0.2000000E-01
  0.3000000E-01
  0.0000000E+00
  0.1000000E-01
  0.2000000E-01
  0.3000000E-01
  0.0000000E+00
  0.1000000E-01
  0.2000000E-01
  0.3000000E-01
  0.0000000E+00
  0.1000000E-01
  0.2000000E-01
  0.3000000E-01
  0.0000000E+00
  0.1000000E-01
  0.2000000E-01
  0.3000000E-01
  0.0000000E+00
  0.1000000E-01
  0.2000000E-01
  0.3000000E-01
  0.0000000E+00
  0.1000000E-01
  0.2000000E-01
  0.3000000E-01
  0.0000000E+00
  0.1000000E-01
  0.2000000E-01
  0.3000000E-01
  0.0000000E+00
  0.1000000E-01
  0.2000000E-01
  0.3000000E-01
  0.0000000E+00
  0.1000000E-01
  0.2000000E-01
  0.3000000E-01
  0.0000000E+00
  0.1000000E-01
  0.2000000E-01
  0.3000000E-01
  0.0000000E+00
  0.1000000E-01
  0.2000000E-01
  0.3000000E-01
  0.0000000E+00
  0.1000000E-01
  0.2000000E-01
  0.3000000E-01
  0.0000000E+00
  0.1000000E-01
  0.2000000E-01
  0.3000000E-01
  0.0000000E+00
  0.1000000E-01
  0.2000000E-01
  0.3000000E-01
  0.0000000E+00
  0.1000000E-01
  0.2000000E-01
  0.3000000E-01
  0.0000000E+00
  0.1000000E-01
  0.2000000E-01
  0.3000000E-01
  0.0000000E+00
  0.1000000E-01
  0.2000000E-01
  0.3000000E-01
  0.0000000E+00
  0.1000000E-01
  0.2000000E-01
  0.3000000E-01
  0.0000000E+00
  0.1000000E-01
  0.2000000E-01
  0.3000000E-01
  0.0000000E+00
  0.1000000E-01
  0.2000000E-01
  0.3000000E-01
  0.0000000E+00
  0.1000000E-01
  0.2000000E-01
  0.3000000E-01
  0.0000000E+00
  0.1000000E-01
  0.2000000E-01
  0.3000000E-01
  0.0000000E+00
  0.1000000E-01
  0.2000000E-01
  0.3000000E-01
  0.0000000E+00
  0.1000000E-01
  0.2000000E-01
  0.3000000E-01
  0.0000000E+00
  0.1000000E-01
  0.2000000E-01
  0.3000000E-01
  0.0000000E+00
  0.1000000E-01
  0.2000000E-01
  0.3000000E-01
  0.0000000E+00
  0.1000000E-01
  0.2000000E-01
  0.3000000E-01
  0.0000000E+00
  0.1000000E-01
  0.2000000E-01
  0.3000000E-01
  0.0000000E+00
  0.1000000E-01
  0.2000000E-01
  0.3000000E-01
  0.0000000E+00
  0.1000000E-01
  0.2000000E-01
  0.3000000E-01
  0.0000000E+00
  0.1000000E-01
  0.2000000E-01
  0.3000000E-01
  0.0000000E+00
  0.1000000E-01
  0.2000000E-01
  0.3000000E-01
  0.0000000E+00
  0.1000000E-01
  0.2000000E-01
  0.3000000E-01
  0.0000000E+00
  0.1000000E-01
  0.2000000E-01
  0.3000000E-01
  0.0000000E+00
  0.1000000E-01
  0.2000000E-01
  0.3000000E-01
  0.0000000E+00
  0.1000000E-01
  0.2000000E-01
  0.3000000E-01
  0.0000000E+00
  0.1000000E-01
  0.2000000E-01
  0.3000000E-01
  0.0000000E+00
  0.1000000E-01
  0.2000000E-01
  0.3000000E-01
  0.0000000E+00
  0.1000000E-01
  0.2000000E-01
  0.3000000E-01
  0.0000000E+00
  0.1000000E-01
  0.2000000E-01
  0.3000000E-01
  0.0000000E+00
  0.1000000E-01
  0.2000000E-01
  0.3000000E-01
  0.0000000E+00
  0.1000000E-01
  0.2000000E-01
  0.3000000E-01
  0.0000000E+00
  0.1000000E-01
  0.2000000E-01
  0.3000000E-01
  0.0000000E+00
  0.1000000E-01
  0.2000000E-01
  0.3000000E-01
  0.0000000E+00
  0.1000000E-01
  0.2000000E-01
  0.3000000E-01
  0.0000000E+00
  0.1000000E-01
  0.2000000E-01
  0.3000000E-01
  0.0000000E+00
  0.1000000E-01
  0.2000000E-01
  0.3000000E-01
  0.0000000E+00
  0.1000000E-01
  0.2000000E-01
  0.3000000E-01
  0.0000000E+00
  0.1000000E-01
  0.2000000E-01
  0.3000000E-01
  0.0000000E+00
  0.1000000E-01
  0.2000000E-01
  0.3000000E-01
  0.0000000E+00
  0.1000000E-01
  0.2000000E-01
  0.3000000E-01
  0.0000000E+00
  0.1000000E-01
  0.2000000E-01
  0.3000000E-01
  0.0000000E+00
  0.1000000E-01
  0.2000000E-01
  0.3000000E-01
  0.0000000E+00
  0.1000000E-01
  0.2000000E-01
  0.3000000E-01
  0.0000000E+00
  0.1000000E-01
  0.2000000E-01
  0.3000000E-01
  0.0000000E+00
  0.1000000E-01
  0.2000000E-01
  0.3000000E-01
  0.0000000E+00
  0.1000000E-01
  0.2000000E-01
  0.3000000E-01
  0.0000000E+00
  0.1000000E-01
  0.2000000E-01
  0.3000000E-01
  0.0000000E+00
  0.1000000E-01
  0.2000000E-01
  0.3000000E-01
  0.0000000E+00
  0.1000000E-01
  0.2000000E-01
  0.3000000E-01
  0.0000000E+00
  0.1000000E-01
  0.2000000E-01
  0.3000000E-01
  0.0000000E+00
  0.1000000E-01
  0.2000000E-01
  0.3000000E-01
  0.0000000E+00
  0.1000000E-01
  0.2000000E-01
  0.3000000E-01
  0.0000000E+00
  0.1000000E-01
  0.2000000E-01
  0.3000000E-01
  0.0000000E+00
  0.1000000E-01
  0.2000000E-01
  0.3000000E-01
  0.0000000E+00
  0.1000000E-01
  0.2000000E-01
  0.3000000E-01
  0.0000000E+00
  0.1000000E-01
  0.2000000E-01
  0.3000000E-01
  0.0000000E+00
  0.1000000E-01
  0.2000000E-01
  0.3000000E-01
  0.0000000E+00
  0.1000000E-01
  0.2000000E-01
  0.3000000E-01
  0.0000000E+00
  0.1000000E-01
  0.2000000E-01
  0.3000000E-01
  0.0000000E+00
  0.1000000E-01
  0.2000000E-01
  0.3000000E-01
  0.0000000E+00
  0.1000000E-01
  0.2000000E-01
  0.3000000E-01
  0.0000000E+00
  0.1000000E-01
  0.2000000E-01
  0.3000000E-01
  0.0000000E+00
  0.1000000E-01
  0.2000000E-01
  0.3000000E-01
  0.0000000E+00
  0.1000000E-01
  0.2000000E-01
  0.3000000E-01
  0.0000000E+00
  0.1000000E-01
  0.2000000E-01
  0.3000000E-01
  0.0000000E+00
  0.1000000E-01
  0.2000000E-01
  0.3000000E-01
  0.0000000E+00
  0.1000000E-01
  0.2000000E-01
  0.3000000E-01
  0.0000000E+00
  0.1000000E-01
  0.2000000E-01
  0.3000000E-01
  0.0000000E+00
  0.1000000E-01
  0.2000000E-01
  0.3000000E-01
  0.0000000E+00
  0.1000000E-01
  0.2000000E-01
  0.3000000E-01
  0.0000000E+00
  0.1000000E-01
  0.2000000E-01
  0.3000000E-01
  0.5307841E+04
  0.5307532E+04
  0.5307893E+04
  0.5341613E+04
  0.5341309E+04
  0.5341697E+04
  0.5345253E+04
  0.5345063E+04
  0.5345422E+04
  0.5346349E+04
  0.5346073E+04
  0.5346462E+04
  0.5333709E+04
  0.5333143E+04
  0.5333555E+04
  0.5308287E+04
  0.5307456E+04
  0.5308004E+04
  0.5272339E+04
  0.5272753E+04
  0.5272259E+04
  0.5225645E+04
  0.5225084E+04
  0.5225935E+04
  0.5172454E+04
  0.5171990E+04
  0.5172767E+04
  0.5111160E+04
  0.5111145E+04
  0.5111120E+04
  0.5043162E+04
  0.5043057E+04
  0.5043002E+04
  0.4968498E+04
  0.4967511E+04
  0.4968197E+04
  0.4888346E+04
  0.4887595E+04
  0.4888001E+04
  0.4801672E+04
  0.4801392E+04
  0.4802058E+04
  0.4710892E+04
  0.4710183E+04
  0.4710342E+04
  0.4614354E+04
  0.4614251E+04
  0.4614774E+04
  0.4512989E+04
  0.4512865E+04
  0.4513254E+04
  0.4408796E+04
  0.4407732E+04
  0.4407944E+04
  0.4299257E+04
  0.4298776E+04
  0.4298990E+04
  0.4185777E+04
  0.4185540E+04
  0.4186037E+04
  0.4069820E+04
  0.4069299E+04
  0.4069733E+04
  0.3949005E+04
  0.3948333E+04
  0.3948967E+04
  0.3825574E+04
  0.3825091E+04
  0.3825263E+04
  0.3700680E+04
  0.3700055E+04
  0.3700593E+04
  0.3573327E+04
  0.3572661E+04
  0.3573061E+04
  0.3443141E+04
  0.3442679E+04
  0.3443103E+04
  0.3317812E+04
  0.3317398E+04
  0.3317922E+04
  0.3193037E+04
  0.3192423E+04
  0.3192484E+04
  0.3059638E+04
  0.3059089E+04
  0.3059932E+04
  0.2929555E+04
  0.2929079E+04
  0.2929351E+04
  0.2800758E+04
  0.2800221E+04
  0.2800807E+04
  0.2670953E+04
  0.2670671E+04
  0.2670902E+04
  0.2541612E+04
  0.2541012E+04
  0.2541630E+04
  0.2416209E+04
  0.2415455E+04
  0.2415882E+04
  0.2290351E+04
  0.2289265E+04
  0.2289785E+04
  0.2165995E+04
  0.2165787E+04
  0.2166528E+04
  0.2043133E+04
  0.2043066E+04
  0.2043132E+04
  0.1927791E+04
  0.1928251E+04
  0.1927590E+04
  0.1807364E+04
  0.1806704E+04
  0.1807492E+04
  0.1695058E+04
  0.1693793E+04
  0.1694733E+04
  0.1577358E+04
  0.1576860E+04
  0.1577541E+04
  0.1478897E+04
  0.1478777E+04
  0.1478649E+04
  0.1361385E+04
  0.1361617E+04
  0.1361454E+04
  0.1272235E+04
  0.1271757E+04
  0.1272114E+04
  0.1157491E+04
  0.1157465E+04
  0.1157539E+04
  0.1088970E+04
  0.1088832E+04
  0.1088909E+04
  0.9631384E+03
  0.9618682E+03
  0.9631653E+03
  0.9422385E+03
  0.9423528E+03
  0.9421892E+03
  0.6908887E+03
  0.6905871E+03
  0.6909044E+03
  0.8027094E+03
  0.8025607E+03
  0.8028187E+03
  0.7479714E+03
  0.7477515E+03
  0.7480155E+03
  0.7322304E+03
  0.7319811E+03
  0.7322616E+03
  0.7281986E+03
  0.7279313E+03
  0.7282187E+03
  0.7245524E+03
  0.7242725E+03
  0.7245655E+03
  0.7200371E+03
  0.7197545E+03
  0.7200463E+03
  0.7155204E+03
  0.7152405E+03
  0.7155271E+03
  0.7111946E+03
  0.7109157E+03
  0.7111976E+03
  0.7070144E+03
  0.7067286E+03
  0.7070099E+03
  0.7035869E+03
  0.7032926E+03
  0.7035722E+03
  0.7014926E+03
  0.7012099E+03
  0.7014716E+03
  0.6994332E+03
  0.6992078E+03
  0.6994200E+03
  0.6949882E+03
  0.6948646E+03
  0.6950013E+03
  0.6868836E+03
  0.6868446E+03
  0.6869306E+03
  0.6776413E+03
  0.6775654E+03
  0.6776941E+03
  0.6708716E+03
  0.6705428E+03
  0.6708703E+03
  0.6693825E+03
  0.6685731E+03
  0.6692536E+03
  0.6640408E+03
  0.6624522E+03
  0.6636755E+03
  0.6585640E+03
  0.6561477E+03
  0.6579204E+03
  0.6491198E+03
  0.6457835E+03
  0.6481335E+03
  0.6344090E+03
  0.6298707E+03
  0.6329716E+03
  0.6215132E+03
  0.6157823E+03
  0.6196220E+03
  0.6006167E+03
  0.5934254E+03
  0.5981417E+03
  0.5842901E+03
  0.5754757E+03
  0.5811330E+03
  0.5619278E+03
  0.5514530E+03
  0.5581144E+03
  0.5434428E+03
  0.5315044E+03
  0.5390603E+03
  0.5260270E+03
  0.5128659E+03
  0.5212976E+03
  0.5101398E+03
  0.4957001E+03
  0.5050015E+03
  0.4923214E+03
  0.4771298E+03
  0.4871649E+03
  0.4766814E+03
  0.4607571E+03
  0.4716115E+03
  0.4660731E+03
  0.4493712E+03
  0.4611616E+03
  0.4534883E+03
  0.4360454E+03
  0.4488951E+03
  0.4433506E+03
  0.4253311E+03
  0.4392299E+03
  0.4285232E+03
  0.4105671E+03
  0.4249908E+03
  0.4160267E+03
  0.3981130E+03
  0.4131140E+03
  0.4058579E+03
  0.3878950E+03
  0.4036578E+03
  0.3982437E+03
  0.3801346E+03
  0.3966014E+03
  0.3937276E+03
  0.3752886E+03
  0.3926953E+03
  0.3909838E+03
  0.3721693E+03
  0.3905142E+03
  0.5307841E+04
  0.5307532E+04
  0.5307893E+04
  0.5341613E+04
  0.5341309E+04
  0.5341697E+04
  0.5345253E+04
  0.5345063E+04
  0.5345422E+04
  0.5346349E+04
  0.5346073E+04
  0.5346462E+04
  0.5333709E+04
  0.5333143E+04
  0.5333555E+04
  0.5308287E+04
  0.5307456E+04
  0.5308004E+04
  0.5272339E+04
  0.5272753E+04
  0.5272259E+04
  0.5225645E+04
  0.5225084E+04
  0.5225935E+04
  0.5172454E+04
  0.5171990E+04
  0.5172767E+04
  0.5111160E+04
  0.5111145E+04
  0.5111120E+04
  0.5043162E+04
  0.5043057E+04
  0.5043002E+04
  0.4968498E+04
  0.4967511E+04
  0.4968197E+04
  0.4888346E+04
  0.4887595E+04
  0.4888001E+04
  0.4801672E+04
  0.4801392E+04
  0.4802058E+04
  0.4710892E+04
  0.4710183E+04
  0.4710342E+04
  0.4614354E+04
  0.4614251E+04
  0.4614774E+04
  0.4512989E+04
  0.4512865E+04
  0.4513254E+04
  0.4408796E+04
  0.4407732E+04
  0.4407944E+04
  0.4299257E+04
  0.4298776E+04
  0.4298990E+04
  0.4185777E+04
  0.4185540E+04
  0.4186037E+04
  0.4069820E+04
  0.4069299E+04
  0.4069733E+04
  0.3949005E+04
  0.3948333E+04
  0.3948967E+04
  0.3825574E+04
  0.3825091E+04
  0.3825263E+04
  0.3700680E+04
  0.3700055E+04
  0.3700593E+04
  0.3573327E+04
  0.3572661E+04
  0.3573061E+04
  0.3443141E+04
  0.3442679E+04
  0.3443103E+04
  0.3317812E+04
  0.3317398E+04
  0.3317922E+04
  0.3193037E+04
  0.3192423E+04
  0.3192484E+04
  0.3059638E+04
  0.3059089E+04
  0.3059932E+04
  0.2929555E+04
  0.2929079E+04
  0.2929351E+04
  0.2800758E+04
  0.2800221E+04
  0.2800807E+04
  0.2670953E+04
  0.2670671E+04
  0.2670902E+04
  0.2541612E+04
  0.2541012E+04
  0.2541630E+04
  0.2416209E+04
  0.2415455E+04
  0.2415882E+04
  0.2290351E+04
  0.2289265E+04
  0.2289785E+04
  0.2165995E+04
  0.2165787E+04
  0.2166528E+04
  0.2043133E+04
  0.2043066E+04
  0.2043132E+04
  0.1927791E+04
  0.1928251E+04
  0.1927590E+04
  0.1807364E+04
  0.1806704E+04
  0.1807492E+04
  0.1695058E+04
  0.1693793E+04
  0.1694733E+04
  0.1577358E+04
  0.1576860E+04
  0.1577541E+04
  0.1478897E+04
  0.1478777E+04
  0.1478649E+04
  0.1361385E+04
  0.1361617E+04
  0.1361454E+04
  0.1272235E+04
  0.1271757E+04
  0.1272114E+04
  0.1157491E+04
  0.1157465E+04
  0.1157539E+04
  0.1088970E+04
  0.1088832E+04
  0.1088909E+04
  0.9631384E+03
  0.9618682E+03
  0.9631653E+03
  0.9422385E+03
  0.9423528E+03
  0.9421892E+03
  0.6908887E+03
  0.6905871E+03
  0.6909044E+03
  0.8027094E+03
  0.8025607E+03
  0.8028187E+03
  0.7479714E+03
  0.7477515E+03
  0.7480155E+03
  0.7322304E+03
  0.7319811E+03
  0.7322616E+03
  0.7281986E+03
  0.7279313E+03
  0.7282187E+03
  0.7245524E+03
  0.7242725E+03
  0.7245655E+03
  0.7200371E+03
  0.7197545E+03
  0.7200463E+03
  0.7155204E+03
  0.7152405E+03
  0.7155271E+03
  0.7111946E+03
  0.7109157E+03
  0.7111976E+03
  0.7070144E+03
  0.7067286E+03
  0.7070099E+03
  0.7035869E+03
  0.7032926E+03
  0.7035722E+03
  0.7014926E+03
  0.7012099E+03
  0.7014716E+03
  0.6994332E+03
  0.6992078E+03
  0.6994200E+03
  0.6949882E+03
  0.6948646E+03
  0.6950013E+03
  0.6868836E+03
  0.6868446E+03
  0.6869306E+03
  0.6776413E+03
  0.6775654E+03
  0.6776941E+03
  0.6708716E+03
  0.6705428E+03
  0.6708703E+03
  0.6693825E+03
  0.6685731E+03
  0.6692536E+03
  0.6640408E+03
  0.6624522E+03
  0.6636755E+03
  0.6585640E+03
  0.6561477E+03
  0.6579204E+03
  0.6491198E+03
  0.6457835E+03
  0.6481335E+03
  0.6344090E+03
  0.6298707E+03
  0.6329716E+03
  0.6215132E+03
  0.6157823E+03
  0.6196220E+03
  0.6006167E+03
  0.5934254E+03
  0.5981417E+03
  0.5842901E+03
  0.5754757E+03
  0.5811330E+03
  0.5619278E+03
  0.5514530E+03
  0.5581144E+03
  0.5434428E+03
  0.5315044E+03
  0.5390603E+03
  0.5260270E+03
  0.5128659E+03
  0.5212976E+03
  0.5101398E+03
  0.4957001E+03
  0.5050015E+03
  0.4923214E+03
  0.4771298E+03
  0.4871649E+03
  0.4766814E+03
  0.4607571E+03
  0.4716115E+03
  0.4660731E+03
  0.4493712E+03
  0.4611616E+03
  0.4534883E+03
  0.4360454E+03
  0.4488951E+03
  0.4433506E+03
  0.4253311E+03
  0.4392299E+03
  0.4285232E+03
  0.4105671E+03
  0.4249908E+03
  0.4160267E+03
  0.3981130E+03
  0.4131140E+03
  0.4058579E+03
  0.3878950E+03
  0.4036578E+03
  0.3982437E+03
  0.3801346E+03
  0.3966014E+03
  0.3937276E+03
  0.3752886E+03
  0.3926953E+03
  0.3909838E+03
  0.3721693E+03
  0.3905142E+03
  0.1928063E+03
  0.1928063E+03
  0.1928063E+03
  0.1928063E+03
  0.1928063E+03
  0.1928063E+03
  0.1928063E+03
  0.1928063E+03
  0.1928063E+03
  0.1928063E+03
  0.1928063E+03
  0.1928063E+03
  0.1928063E+03
  0.1928063E+03
  0.1928063E+03
  0.1928063E+03
  0.1928063E+03
  0.1928063E+03
  0.1928063E+03
  0.1928063E+03
  0.1928063E+03
  0.1928063E+03
  0.1928063E+03
  0.1928063E+03
  0.1928063E+03
  0.1928063E+03
  0.1928063E+03
  0.1928063E+03
  0.1928063E+03
  0.1928063E+03
  0.1928063E+03
  0.1928063E+03
  0.1928063E+03
  0.1928063E+03
  0.1928063E+03
  0.1928063E+03
  0.1928063E+03
  0.1928063E+03
  0.1928063E+03
  0.1928063E+03
  0.1928063E+03
  0.1928063E+03
  0.1928063E+03
  0.1928063E+03
  0.1928063E+03
  0.1928063E+03
  0.1928063E+03
  0.1928063E+03
  0.1928063E+03
  0.1928063E+03
  0.1928063E+03
  0.1928063E+03
  0.1928063E+03
  0.1928063E+03
  0.1928063E+03
  0.1928063E+03
  0.1928063E+03
  0.1928063E+03
  0.1928063E+03
  0.1928063E+03
  0.1928063E+03
  0.1928063E+03
  0.1928063E+03
  0.1928063E+03
  0.1928063E+03
  0.1928063E+03
  0.1928063E+03
  0.1928063E+03
  0.1928063E+03
  0.1928063E+03
  0.1928063E+03
  0.1928063E+03
  0.1928063E+03
  0.1928063E+03
  0.1928063E+03
  0.1928063E+03
  0.1928063E+03
  0.1928063E+03
  0.1928063E+03
  0.1928063E+03
  0.1928063E+03
  0.1928063E+03
  0.1928063E+03
  0.1928063E+03
  0.1928063E+03
  0.1928063E+03
  0.1928063E+03
  0.1928063E+03
  0.1928063E+03
  0.1928063E+03
  0.1928063E+03
  0.1928063E+03
  0.1928063E+03
  0.1928063E+03
  0.1928063E+03
  0.1928063E+03
  0.1928063E+03
  0.1928063E+03
  0.1928063E+03
  0.1928063E+03
  0.1928063E+03
  0.1928063E+03
  0.1928063E+03
  0.1928063E+03
  0.1928063E+03
  0.1928063E+03
  0.1928063E+03
  0.1928063E+03
  0.1928063E+03
  0.1928063E+03
  0.1928063E+03
  0.1928063E+03
  0.1928063E+03
  0.1928063E+03
  0.1928063E+03
  0.1928063E+03
  0.1928063E+03
  0.1928063E+03
  0.1928063E+03
  0.1928063E+03
  0.1928063E+03
  0.1928063E+03
  0.1928063E+03
  0.1928063E+03
  0.1928063E+03
  0.1928063E+03
  0.1928063E+03
  0.1928063E+03
  0.1928063E+03
  0.1928063E+03
  0.1928063E+03
  0.1928063E+03
  0.1928063E+03
  0.1928063E+03
  0.1928063E+03
  0.1928063E+03
  0.1928063E+03
  0.1928063E+03
  0.1928063E+03
  0.1928063E+03
  0.1928063E+03
  0.1928063E+03
  0.1928063E+03
  0.1928063E+03
  0.1928063E+03
  0.1928063E+03
  0.1928063E+03
  0.1928063E+03
  0.1928063E+03
  0.1928063E+03
  0.1928063E+03
  0.1928063E+03
  0.1928063E+03
  0.1928063E+03
  0.1928063E+03
  0.1928063E+03
  0.1928063E+03
  0.1928063E+03
  0.1928063E+03
  0.1928063E+03
  0.1928063E+03
  0.1928063E+03
  0.1928063E+03
  0.1928063E+03
  0.1928063E+03
  0.1928063E+03
  0.1928063E+03
  0.1928063E+03
  0.1928063E+03
  0.1928063E+03
  0.1928063E+03
  0.1928063E+03
  0.1928063E+03
  0.1928063E+03
  0.1928063E+03
  0.1928063E+03
  0.1928063E+03
  0.1928063E+03
  0.1928063E+03
  0.1928063E+03
  0.1928063E+03
  0.1928063E+03
  0.1928063E+03
  0.1928063E+03
  0.1928063E+03
  0.1928063E+03
  0.1928063E+03
  0.1928063E+03
  0.1928063E+03
  0.1928063E+03
  0.1928063E+03
  0.1928063E+03
  0.1928063E+03
  0.1928063E+03
  0.1928063E+03
  0.1928063E+03
  0.1928063E+03
  0.1928063E+03
  0.1928063E+03
  0.1928063E+03
  0.1928063E+03
  0.1928063E+03
  0.1928063E+03
  0.1928063E+03
  0.1928063E+03
  0.1928063E+03
  0.1928063E+03
  0.1928063E+03
  0.1928063E+03
  0.1928063E+03
  0.1928063E+03
  0.1928063E+03
  0.1928063E+03
  0.1928063E+03
  0.1928063E+03
  0.1928063E+03
  0.1928063E+03
  0.1928063E+03
  0.1928063E+03
  0.1928063E+03
  0.1928063E+03
  0.1928063E+03
  0.1928063E+03
  0.1928063E+03
  0.1928063E+03
  0.1928063E+03
  0.1928063E+03
  0.1928063E+03
  0.1928063E+03
  0.1928063E+03
  0.1928063E+03
  0.1928063E+03
  0.1928063E+03
  0.1928063E+03
  0.1928063E+03
  0.1928063E+03
  0.1928063E+03
  0.1928063E+03
  0.1928063E+03
  0.1928063E+03
  0.1928063E+03
  0.1928063E+03
  0.1928063E+03
  0.1928063E+03
  0.1928063E+03
  0.1928063E+03
  0.1928063E+03
  0.1928063E+03
  0.1928063E+03
  0.1928063E+03
  0.1928063E+03
  0.1928063E+03
  0.1928063E+03
  0.1928063E+03
  0.1928063E+03
  0.1928063E+03
  0.1928063E+03
  0.1928063E+03
  0.1928063E+03
  0.1928063E+03
  0.1928063E+03
  0.1928063E+03
  0.1928063E+03
  0.1928063E+03
  0.5115035E+04