 TITLE = "VectorSurfaceData"
VARIABLES = "x" "y" "z"
  "fnorm1"
  "fnorm2"
  "fnorm3"
  "fnorm"
  "ftau1"
  "ftau2"
  "ftau3"
  "ftau"
  "yplus"
 ZONE T=Bnd3 DATAPACKING=Block
 N=16766
 E=16600
 ZONETYPE=FEQUADRILATERAL
 VarLocation=([4-12]=CellCentered)
 -0.5000000E+02
 -0.4996145E+02
 -0.5000000E+02
 -0.4762922E+02
 -0.4759250E+02
 -0.4762922E+02
 -0.4525845E+02
 -0.4522355E+02
 -0.4525845E+02
 -0.4288767E+02
 -0.4285460E+02
 -0.4288767E+02
 -0.4051689E+02
 -0.4048566E+02
 -0.4051689E+02
 -0.3814611E+02
 -0.3811671E+02
 -0.3814611E+02
 -0.3577534E+02
 -0.3574776E+02
 -0.3577534E+02
 -0.3340456E+02
 -0.3337881E+02
 -0.3340456E+02
 -0.3103378E+02
 -0.3100986E+02
 -0.3103378E+02
 -0.2866301E+02
 -0.2864091E+02
 -0.2866301E+02
 -0.2629223E+02
 -0.2627196E+02
 -0.2629223E+02
 -0.2392145E+02
 -0.2390301E+02
 -0.2392145E+02
 -0.2155068E+02
 -0.2153406E+02
 -0.2155068E+02
 -0.1917990E+02
 -0.1916511E+02
 -0.1917990E+02
 -0.1680912E+02
 -0.1679616E+02
 -0.1680912E+02
 -0.1443835E+02
 -0.1442721E+02
 -0.1443835E+02
 -0.1219862E+02
 -0.1218922E+02
 -0.1219862E+02
 -0.1033218E+02
 -0.1032422E+02
 -0.1033218E+02
 -0.8776820E+01
 -0.8770053E+01
 -0.8776820E+01
 -0.7480683E+01
 -0.7474915E+01
 -0.7480683E+01
 -0.6400568E+01
 -0.6395634E+01
 -0.6400568E+01
 -0.5500474E+01
 -0.5496233E+01
 -0.5500474E+01
 -0.4750394E+01
 -0.4746732E+01
 -0.4750394E+01
 -0.4125328E+01
 -0.4122148E+01
 -0.4125328E+01
 -0.3604439E+01
 -0.3601660E+01
 -0.3604439E+01
 -0.3170366E+01
 -0.3167922E+01
 -0.3170366E+01
 -0.2808638E+01
 -0.2806472E+01
 -0.2808638E+01
 -0.2507198E+01
 -0.2505265E+01
 -0.2507198E+01
 -0.2255998E+01
 -0.2254258E+01
 -0.2255998E+01
 -0.2046664E+01
 -0.2045086E+01
 -0.2046664E+01
 -0.1872220E+01
 -0.1870776E+01
 -0.1872220E+01
 -0.1726849E+01
 -0.1725518E+01
 -0.1726849E+01
 -0.1605708E+01
 -0.1604469E+01
 -0.1605708E+01
 -0.1504756E+01
 -0.1503596E+01
 -0.1504756E+01
 -0.1420629E+01
 -0.1419534E+01
 -0.1420629E+01
 -0.1350524E+01
 -0.1349483E+01
 -0.1350524E+01
 -0.1292103E+01
 -0.1291107E+01
 -0.1292103E+01
 -0.1243419E+01
 -0.1242460E+01
 -0.1243419E+01
 -0.1202849E+01
 -0.1201921E+01
 -0.1202849E+01
 -0.1169040E+01
 -0.1168139E+01
 -0.1169040E+01
 -0.1140866E+01
 -0.1139987E+01
 -0.1140866E+01
 -0.1117388E+01
 -0.1116526E+01
 -0.1117388E+01
 -0.1097823E+01
 -0.1096977E+01
 -0.1097823E+01
 -0.1081519E+01
 -0.1080685E+01
 -0.1081519E+01
 -0.1067932E+01
 -0.1067108E+01
 -0.1067932E+01
 -0.1056610E+01
 -0.1055795E+01
 -0.1056610E+01
 -0.1047174E+01
 -0.1046367E+01
 -0.1047174E+01
 -0.1039311E+01
 -0.1038510E+01
 -0.1039311E+01
 -0.1032759E+01
 -0.1031963E+01
 -0.1032759E+01
 -0.1027299E+01
 -0.1026507E+01
 -0.1027299E+01
 -0.1022749E+01
 -0.1021960E+01
 -0.1022749E+01
 -0.1018957E+01
 -0.1018171E+01
 -0.1018957E+01
 -0.1015797E+01
 -0.1015014E+01
 -0.1015797E+01
 -0.1013164E+01
 -0.1012382E+01
 -0.1013164E+01
 -0.1010969E+01
 -0.1010190E+01
 -0.1010969E+01
 -0.1009141E+01
 -0.1008363E+01
 -0.1009141E+01
 -0.1007617E+01
 -0.1006840E+01
 -0.1007617E+01
 -0.1006347E+01
 -0.1005571E+01
 -0.1006347E+01
 -0.1005289E+01
 -0.1004514E+01
 -0.1005289E+01
 -0.1004407E+01
 -0.1003632E+01
 -0.1004407E+01
 -0.1003672E+01
 -0.1002898E+01
 -0.1003672E+01
 -0.1003060E+01
 -0.1002286E+01
 -0.1003060E+01
 -0.1002549E+01
 -0.1001776E+01
 -0.1002549E+01
 -0.1002124E+01
 -0.1001351E+01
 -0.1002124E+01
 -0.1001770E+01
 -0.1000997E+01
 -0.1001770E+01
 -0.1001474E+01
 -0.1000702E+01
 -0.1001474E+01
 -0.1001228E+01
 -0.1000456E+01
 -0.1001228E+01
 -0.1001023E+01
 -0.1000251E+01
 -0.1001023E+01
 -0.1000852E+01
 -0.1000080E+01
 -0.1000852E+01
 -0.1000710E+01
 -0.9999380E+00
 -0.1000710E+01
 -0.1000591E+01
 -0.9998193E+00
 -0.1000591E+01
 -0.1000492E+01
 -0.9997205E+00
 -0.1000492E+01
 -0.1000410E+01
 -0.9996382E+00
 -0.1000410E+01
 -0.1000341E+01
 -0.9995695E+00
 -0.1000341E+01
 -0.1000284E+01
 -0.9995124E+00
 -0.1000284E+01
 -0.1000236E+01
 -0.9994647E+00
 -0.1000236E+01
 -0.1000196E+01
 -0.9994250E+00
 -0.1000196E+01
 -0.1000163E+01
 -0.9993919E+00
 -0.1000163E+01
 -0.1000136E+01
 -0.9993643E+00
 -0.1000136E+01
 -0.1000113E+01
 -0.9993413E+00
 -0.1000113E+01
 -0.1000093E+01
 -0.9993221E+00
 -0.1000093E+01
 -0.1000077E+01
 -0.9993062E+00
 -0.1000077E+01
 -0.1000064E+01
 -0.9992929E+00
 -0.1000064E+01
 -0.1000053E+01
 -0.9992818E+00
 -0.1000053E+01
 -0.1000044E+01
 -0.9992726E+00
 -0.1000044E+01
 -0.1000036E+01
 -0.9992649E+00
 -0.1000036E+01
 -0.1000030E+01
 -0.9992585E+00
 -0.1000030E+01
 -0.1000024E+01
 -0.9992531E+00
 -0.1000024E+01
 -0.1000020E+01
 -0.9992486E+00
 -0.1000020E+01
 -0.1000016E+01
 -0.9992449E+00
 -0.1000016E+01
 -0.1000013E+01
 -0.9992418E+00
 -0.1000013E+01
 -0.1000010E+01
 -0.9992393E+00
 -0.1000010E+01
 -0.1000008E+01
 -0.9992371E+00
 -0.1000008E+01
 -0.1000006E+01
 -0.9992353E+00
 -0.1000006E+01
 -0.1000005E+01
 -0.9992338E+00
 -0.1000005E+01
 -0.1000004E+01
 -0.9992326E+00
 -0.1000004E+01
 -0.1000003E+01
 -0.9992316E+00
 -0.1000003E+01
 -0.1000002E+01
 -0.9992307E+00
 -0.1000002E+01
 -0.1000001E+01
 -0.9992300E+00
 -0.1000001E+01
 -0.1000000E+01
 -0.9992294E+00
 -0.1000000E+01
 -0.1000000E+01
 -0.9992289E+00
 -0.1000000E+01
 -0.5000000E+02
 -0.4762922E+02
 -0.4525845E+02
 -0.4288767E+02
 -0.4051689E+02
 -0.3814611E+02
 -0.3577534E+02
 -0.3340456E+02
 -0.3103378E+02
 -0.2866301E+02
 -0.2629223E+02
 -0.2392145E+02
 -0.2155068E+02
 -0.1917990E+02
 -0.1680912E+02
 -0.1443835E+02
 -0.1219862E+02
 -0.1033218E+02
 -0.8776820E+01
 -0.7480683E+01
 -0.6400568E+01
 -0.5500474E+01
 -0.4750394E+01
 -0.4125328E+01
 -0.3604439E+01
 -0.3170366E+01
 -0.2808638E+01
 -0.2507198E+01
 -0.2255998E+01
 -0.2046664E+01
 -0.1872220E+01
 -0.1726849E+01
 -0.1605708E+01
 -0.1504756E+01
 -0.1420629E+01
 -0.1350524E+01
 -0.1292103E+01
 -0.1243419E+01
 -0.1202849E+01
 -0.1169040E+01
 -0.1140866E+01
 -0.1117388E+01
 -0.1097823E+01
 -0.1081519E+01
 -0.1067932E+01
 -0.1056610E+01
 -0.1047174E+01
 -0.1039311E+01
 -0.1032759E+01
 -0.1027299E+01
 -0.1022749E+01
 -0.1018957E+01
 -0.1015797E+01
 -0.1013164E+01
 -0.1010969E+01
 -0.1009141E+01
 -0.1007617E+01
 -0.1006347E+01
 -0.1005289E+01
 -0.1004407E+01
 -0.1003672E+01
 -0.1003060E+01
 -0.1002549E+01
 -0.1002124E+01
 -0.1001770E+01
 -0.1001474E+01
 -0.1001228E+01
 -0.1001023E+01
 -0.1000852E+01
 -0.1000710E+01
 -0.1000591E+01
 -0.1000492E+01
 -0.1000410E+01
 -0.1000341E+01
 -0.1000284E+01
 -0.1000236E+01
 -0.1000196E+01
 -0.1000163E+01
 -0.1000136E+01
 -0.1000113E+01
 -0.1000093E+01
 -0.1000077E+01
 -0.1000064E+01
 -0.1000053E+01
 -0.1000044E+01
 -0.1000036E+01
 -0.1000030E+01
 -0.1000024E+01
 -0.1000020E+01
 -0.1000016E+01
 -0.1000013E+01
 -0.1000010E+01
 -0.1000008E+01
 -0.1000006E+01
 -0.1000005E+01
 -0.1000004E+01
 -0.1000003E+01
 -0.1000002E+01
 -0.1000001E+01
 -0.1000000E+01
 -0.1000000E+01
 -0.5000000E+02
 -0.4996145E+02
 -0.4762922E+02
 -0.4759250E+02
 -0.4525845E+02
 -0.4522355E+02
 -0.4288767E+02
 -0.4285460E+02
 -0.4051689E+02
 -0.4048565E+02
 -0.3814611E+02
 -0.3811670E+02
 -0.3577534E+02
 -0.3574775E+02
 -0.3340456E+02
 -0.3337881E+02
 -0.3103378E+02
 -0.3100986E+02
 -0.2866301E+02
 -0.2864091E+02
 -0.2629223E+02
 -0.2627196E+02
 -0.2392145E+02
 -0.2390301E+02
 -0.2155068E+02
 -0.2153406E+02
 -0.1917990E+02
 -0.1916511E+02
 -0.1680912E+02
 -0.1679616E+02
 -0.1443835E+02
 -0.1442721E+02
 -0.1219862E+02
 -0.1218922E+02
 -0.1033218E+02
 -0.1032422E+02
 -0.8776820E+01
 -0.8770053E+01
 -0.7480683E+01
 -0.7474915E+01
 -0.6400568E+01
 -0.6395633E+01
 -0.5500474E+01
 -0.5496232E+01
 -0.4750394E+01
 -0.4746731E+01
 -0.4125328E+01
 -0.4122147E+01
 -0.3604439E+01
 -0.3601660E+01
 -0.3170366E+01
 -0.3167921E+01
 -0.2808638E+01
 -0.2806472E+01
 -0.2507198E+01
 -0.2505264E+01
 -0.2255998E+01
 -0.2254258E+01
 -0.2046664E+01
 -0.2045086E+01
 -0.1872220E+01
 -0.1870776E+01
 -0.1726849E+01
 -0.1725518E+01
 -0.1605708E+01
 -0.1604469E+01
 -0.1504756E+01
 -0.1503595E+01
 -0.1420629E+01
 -0.1419534E+01
 -0.1350524E+01
 -0.1349483E+01
 -0.1292103E+01
 -0.1291106E+01
 -0.1243419E+01
 -0.1242460E+01
 -0.1202849E+01
 -0.1201921E+01
 -0.1169040E+01
 -0.1168138E+01
 -0.1140866E+01
 -0.1139986E+01
 -0.1117388E+01
 -0.1116526E+01
 -0.1097823E+01
 -0.1096976E+01
 -0.1081519E+01
 -0.1080685E+01
 -0.1067932E+01
 -0.1067108E+01
 -0.1056610E+01
 -0.1055794E+01
 -0.1047174E+01
 -0.1046366E+01
 -0.1039311E+01
 -0.1038510E+01
 -0.1032759E+01
 -0.1031963E+01
 -0.1027299E+01
 -0.1026506E+01
 -0.1022749E+01
 -0.1021960E+01
 -0.1018957E+01
 -0.1018171E+01
 -0.1015797E+01
 -0.1015013E+01
 -0.1013164E+01
 -0.1012382E+01
 -0.1010969E+01
 -0.1010190E+01
 -0.1009141E+01
 -0.1008362E+01
 -0.1007617E+01
 -0.1006840E+01
 -0.1006347E+01
 -0.1005571E+01
 -0.1005289E+01
 -0.1004513E+01
 -0.1004407E+01
 -0.1003632E+01
 -0.1003672E+01
 -0.1002898E+01
 -0.1003060E+01
 -0.1002286E+01
 -0.1002549E+01
 -0.1001776E+01
 -0.1002124E+01
 -0.1001351E+01
 -0.1001770E+01
 -0.1000997E+01
 -0.1001474E+01
 -0.1000702E+01
 -0.1001228E+01
 -0.1000456E+01
 -0.1001023E+01
 -0.1000251E+01
 -0.1000852E+01
 -0.1000080E+01
 -0.1000710E+01
 -0.9999378E+00
 -0.1000591E+01
 -0.9998192E+00
 -0.1000492E+01
 -0.9997203E+00
 -0.1000410E+01
 -0.9996380E+00
 -0.1000341E+01
 -0.9995693E+00
 -0.1000284E+01
 -0.9995121E+00
 -0.1000236E+01
 -0.9994645E+00
 -0.1000196E+01
 -0.9994248E+00
 -0.1000163E+01
 -0.9993917E+00
 -0.1000136E+01
 -0.9993641E+00
 -0.1000113E+01
 -0.9993411E+00
 -0.1000093E+01
 -0.9993219E+00
 -0.1000077E+01
 -0.9993060E+00
 -0.1000064E+01
 -0.9992927E+00
 -0.1000053E+01
 -0.9992816E+00
 -0.1000044E+01
 -0.9992723E+00
 -0.1000036E+01
 -0.9992647E+00
 -0.1000030E+01
 -0.9992582E+00
 -0.1000024E+01
 -0.9992529E+00
 -0.1000020E+01
 -0.9992484E+00
 -0.1000016E+01
 -0.9992448E+00
 -0.1000013E+01
 -0.9992416E+00
 -0.1000010E+01
 -0.9992390E+00
 -0.1000008E+01
 -0.9992369E+00
 -0.1000006E+01
 -0.9992351E+00
 -0.1000005E+01
 -0.9992336E+00
 -0.1000004E+01
 -0.9992324E+00
 -0.1000003E+01
 -0.9992313E+00
 -0.1000002E+01
 -0.9992305E+00
 -0.1000001E+01
 -0.9992298E+00
 -0.1000000E+01
 -0.9992291E+00
 -0.1000000E+01
 -0.9992287E+00
 -0.4984586E+02
 -0.4748240E+02
 -0.4511893E+02
 -0.4275546E+02
 -0.4039199E+02
 -0.3802852E+02
 -0.3566505E+02
 -0.3330158E+02
 -0.3093812E+02
 -0.2857465E+02
 -0.2621118E+02
 -0.2384771E+02
 -0.2148424E+02
 -0.1912077E+02
 -0.1675731E+02
 -0.1439384E+02
 -0.1216102E+02
 -0.1030033E+02
 -0.8749763E+01
 -0.7457622E+01
 -0.6380837E+01
 -0.5483517E+01
 -0.4735750E+01
 -0.4112611E+01
 -0.3593328E+01
 -0.3160593E+01
 -0.2799980E+01
 -0.2499469E+01
 -0.2249043E+01
 -0.2040355E+01
 -0.1866448E+01
 -0.1721526E+01
 -0.1600758E+01
 -0.1500117E+01
 -0.1416250E+01
 -0.1346361E+01
 -0.1288120E+01
 -0.1239586E+01
 -0.1199141E+01
 -0.1165436E+01
 -0.1137349E+01
 -0.1113944E+01
 -0.1094439E+01
 -0.1078185E+01
 -0.1064640E+01
 -0.1053352E+01
 -0.1043946E+01
 -0.1036108E+01
 -0.1029575E+01
 -0.1024132E+01
 -0.1019596E+01
 -0.1015816E+01
 -0.1012666E+01
 -0.1010040E+01
 -0.1007853E+01
 -0.1006030E+01
 -0.1004511E+01
 -0.1003245E+01
 -0.1002190E+01
 -0.1001311E+01
 -0.1000578E+01
 -0.9999674E+00
 -0.9994587E+00
 -0.9990347E+00
 -0.9986814E+00
 -0.9983869E+00
 -0.9981416E+00
 -0.9979371E+00
 -0.9977667E+00
 -0.9976248E+00
 -0.9975064E+00
 -0.9974079E+00
 -0.9973257E+00
 -0.9972572E+00
 -0.9972001E+00
 -0.9971526E+00
 -0.9971130E+00
 -0.9970800E+00
 -0.9970524E+00
 -0.9970295E+00
 -0.9970104E+00
 -0.9969944E+00
 -0.9969812E+00
 -0.9969701E+00
 -0.9969609E+00
 -0.9969532E+00
 -0.9969468E+00
 -0.9969415E+00
 -0.9969370E+00
 -0.9969333E+00
 -0.9969303E+00
 -0.9969277E+00
 -0.9969255E+00
 -0.9969237E+00
 -0.9969223E+00
 -0.9969210E+00
 -0.9969200E+00
 -0.9969192E+00
 -0.9969184E+00
 -0.9969178E+00
 -0.9969173E+00
 -0.4984587E+02
 -0.4748240E+02
 -0.4511893E+02
 -0.4275546E+02
 -0.4039199E+02
 -0.3802852E+02
 -0.3566505E+02
 -0.3330159E+02
 -0.3093812E+02
 -0.2857465E+02
 -0.2621118E+02
 -0.2384771E+02
 -0.2148424E+02
 -0.1912078E+02
 -0.1675731E+02
 -0.1439384E+02
 -0.1216102E+02
 -0.1030033E+02
 -0.8749763E+01
 -0.7457622E+01
 -0.6380837E+01
 -0.5483517E+01
 -0.4735750E+01
 -0.4112611E+01
 -0.3593328E+01
 -0.3160592E+01
 -0.2799979E+01
 -0.2499469E+01
 -0.2249043E+01
 -0.2040355E+01
 -0.1866448E+01
 -0.1721526E+01
 -0.1600757E+01
 -0.1500117E+01
 -0.1416250E+01
 -0.1346361E+01
 -0.1288120E+01
 -0.1239585E+01
 -0.1199140E+01
 -0.1165436E+01
 -0.1137349E+01
 -0.1113943E+01
 -0.1094438E+01
 -0.1078184E+01
 -0.1064639E+01
 -0.1053352E+01
 -0.1043946E+01
 -0.1036107E+01
 -0.1029575E+01
 -0.1024132E+01
 -0.1019596E+01
 -0.1015815E+01
 -0.1012665E+01
 -0.1010040E+01
 -0.1007852E+01
 -0.1006029E+01
 -0.1004510E+01
 -0.1003244E+01
 -0.1002189E+01
 -0.1001310E+01
 -0.1000578E+01
 -0.9999671E+00
 -0.9994583E+00
 -0.9990343E+00
 -0.9986811E+00
 -0.9983866E+00
 -0.9981413E+00
 -0.9979368E+00
 -0.9977664E+00
 -0.9976245E+00
 -0.9975061E+00
 -0.9974075E+00
 -0.9973254E+00
 -0.9972569E+00
 -0.9971998E+00
 -0.9971523E+00
 -0.9971126E+00
 -0.9970796E+00
 -0.9970521E+00
 -0.9970292E+00
 -0.9970101E+00
 -0.9969941E+00
 -0.9969808E+00
 -0.9969698E+00
 -0.9969606E+00
 -0.9969529E+00
 -0.9969465E+00
 -0.9969411E+00
 -0.9969367E+00
 -0.9969330E+00
 -0.9969299E+00
 -0.9969274E+00
 -0.9969252E+00
 -0.9969234E+00
 -0.9969220E+00
 -0.9969207E+00
 -0.9969197E+00
 -0.9969188E+00
 -0.9969181E+00
 -0.9969175E+00
 -0.9969170E+00
 -0.4965342E+02
 -0.4729908E+02
 -0.4494473E+02
 -0.4259039E+02
 -0.4023605E+02
 -0.3788170E+02
 -0.3552736E+02
 -0.3317302E+02
 -0.3081867E+02
 -0.2846433E+02
 -0.2610999E+02
 -0.2375564E+02
 -0.2140130E+02
 -0.1904695E+02
 -0.1669261E+02
 -0.1433827E+02
 -0.1211407E+02
 -0.1026057E+02
 -0.8715982E+01
 -0.7428830E+01
 -0.6356203E+01
 -0.5462347E+01
 -0.4717466E+01
 -0.4096733E+01
 -0.3579455E+01
 -0.3148390E+01
 -0.2789169E+01
 -0.2489819E+01
 -0.2240360E+01
 -0.2032478E+01
 -0.1859242E+01
 -0.1714880E+01
 -0.1594577E+01
 -0.1494325E+01
 -0.1410782E+01
 -0.1341163E+01
 -0.1283146E+01
 -0.1234800E+01
 -0.1194511E+01
 -0.1160937E+01
 -0.1132958E+01
 -0.1109643E+01
 -0.1090213E+01
 -0.1074022E+01
 -0.1060529E+01
 -0.1049285E+01
 -0.1039915E+01
 -0.1032107E+01
 -0.1025600E+01
 -0.1020178E+01
 -0.1015659E+01
 -0.1011894E+01
 -0.1008756E+01
 -0.1006141E+01
 -0.1003961E+01
 -0.1002146E+01
 -0.1000632E+01
 -0.9993712E+00
 -0.9983202E+00
 -0.9974445E+00
 -0.9967147E+00
 -0.9961065E+00
 -0.9955997E+00
 -0.9951774E+00
 -0.9948255E+00
 -0.9945322E+00
 -0.9942878E+00
 -0.9940841E+00
 -0.9939144E+00
 -0.9937729E+00
 -0.9936551E+00
 -0.9935569E+00
 -0.9934750E+00
 -0.9934068E+00
 -0.9933500E+00
 -0.9933026E+00
 -0.9932631E+00
 -0.9932302E+00
 -0.9932028E+00
 -0.9931800E+00
 -0.9931609E+00
 -0.9931450E+00
 -0.9931319E+00
 -0.9931208E+00
 -0.9931116E+00
 -0.9931040E+00
 -0.9930976E+00
 -0.9930923E+00
 -0.9930878E+00
 -0.9930842E+00
 -0.9930812E+00
 -0.9930785E+00
 -0.9930764E+00
 -0.9930746E+00
 -0.9930732E+00
 -0.9930719E+00
 -0.9930709E+00
 -0.9930701E+00
 -0.9930693E+00
 -0.9930687E+00
 -0.9930682E+00
 -0.4965342E+02
 -0.4729908E+02
 -0.4494473E+02
 -0.4259039E+02
 -0.4023605E+02
 -0.3788170E+02
 -0.3552736E+02
 -0.3317302E+02
 -0.3081867E+02
 -0.2846433E+02
 -0.2610998E+02
 -0.2375564E+02
 -0.2140130E+02
 -0.1904695E+02
 -0.1669261E+02
 -0.1433827E+02
 -0.1211407E+02
 -0.1026057E+02
 -0.8715982E+01
 -0.7428830E+01
 -0.6356202E+01
 -0.5462346E+01
 -0.4717466E+01
 -0.4096733E+01
 -0.3579455E+01
 -0.3148390E+01
 -0.2789169E+01
 -0.2489819E+01
 -0.2240360E+01
 -0.2032477E+01
 -0.1859242E+01
 -0.1714879E+01
 -0.1594577E+01
 -0.1494325E+01
 -0.1410782E+01
 -0.1341162E+01
 -0.1283146E+01
 -0.1234800E+01
 -0.1194511E+01
 -0.1160936E+01
 -0.1132958E+01
 -0.1109643E+01
 -0.1090213E+01
 -0.1074022E+01
 -0.1060529E+01
 -0.1049285E+01
 -0.1039915E+01
 -0.1032107E+01
 -0.1025600E+01
 -0.1020178E+01
 -0.1015659E+01
 -0.1011893E+01
 -0.1008755E+01
 -0.1006140E+01
 -0.1003961E+01
 -0.1002145E+01
 -0.1000632E+01
 -0.9993710E+00
 -0.9983201E+00
 -0.9974443E+00
 -0.9967145E+00
 -0.9961064E+00
 -0.9955996E+00
 -0.9951773E+00
 -0.9948253E+00
 -0.9945320E+00
 -0.9942876E+00
 -0.9940839E+00
 -0.9939142E+00
 -0.9937727E+00
 -0.9936549E+00
 -0.9935567E+00
 -0.9934748E+00
 -0.9934067E+00
 -0.9933498E+00
 -0.9933024E+00
 -0.9932629E+00
 -0.9932300E+00
 -0.9932026E+00
 -0.9931798E+00
 -0.9931608E+00
 -0.9931449E+00
 -0.9931317E+00
 -0.9931207E+00
 -0.9931115E+00
 -0.9931038E+00
 -0.9930974E+00
 -0.9930921E+00
 -0.9930877E+00
 -0.9930840E+00
 -0.9930810E+00
 -0.9930784E+00
 -0.9930763E+00
 -0.9930745E+00
 -0.9930730E+00
 -0.9930717E+00
 -0.9930707E+00
 -0.9930699E+00
 -0.9930692E+00
 -0.9930686E+00
 -0.9930680E+00
 -0.4938441E+02
 -0.4704283E+02
 -0.4470124E+02
 -0.4235965E+02
 -0.4001806E+02
 -0.3767647E+02
 -0.3533488E+02
 -0.3299330E+02
 -0.3065171E+02
 -0.2831012E+02
 -0.2596853E+02
 -0.2362694E+02
 -0.2128535E+02
 -0.1894376E+02
 -0.1660217E+02
 -0.1426059E+02
 -0.1204844E+02
 -0.1020498E+02
 -0.8668762E+01
 -0.7388583E+01
 -0.6321767E+01
 -0.5432753E+01
 -0.4691909E+01
 -0.4074538E+01
 -0.3560063E+01
 -0.3131333E+01
 -0.2774059E+01
 -0.2476330E+01
 -0.2228222E+01
 -0.2021466E+01
 -0.1849169E+01
 -0.1705589E+01
 -0.1585938E+01
 -0.1486230E+01
 -0.1403139E+01
 -0.1333897E+01
 -0.1276195E+01
 -0.1228110E+01
 -0.1188039E+01
 -0.1154647E+01
 -0.1126820E+01
 -0.1103631E+01
 -0.1084307E+01
 -0.1068203E+01
 -0.1054784E+01
 -0.1043601E+01
 -0.1034281E+01
 -0.1026515E+01
 -0.1020044E+01
 -0.1014651E+01
 -0.1010157E+01
 -0.1006411E+01
 -0.1003291E+01
 -0.1000690E+01
 -0.9985223E+00
 -0.9967162E+00
 -0.9952111E+00
 -0.9939569E+00
 -0.9929116E+00
 -0.9920406E+00
 -0.9913148E+00
 -0.9907100E+00
 -0.9902059E+00
 -0.9897858E+00
 -0.9894359E+00
 -0.9891441E+00
 -0.9889010E+00
 -0.9886984E+00
 -0.9885297E+00
 -0.9883890E+00
 -0.9882718E+00
 -0.9881741E+00
 -0.9880927E+00
 -0.9880248E+00
 -0.9879683E+00
 -0.9879212E+00
 -0.9878819E+00
 -0.9878492E+00
 -0.9878219E+00
 -0.9877992E+00
 -0.9877803E+00
 -0.9877645E+00
 -0.9877514E+00
 -0.9877404E+00
 -0.9877313E+00
 -0.9877237E+00
 -0.9877173E+00
 -0.9877120E+00
 -0.9877076E+00
 -0.9877040E+00
 -0.9877009E+00
 -0.9876984E+00
 -0.9876962E+00
 -0.9876944E+00
 -0.9876930E+00
 -0.9876918E+00
 -0.9876907E+00
 -0.9876899E+00
 -0.9876892E+00
 -0.9876886E+00
 -0.9876881E+00
 -0.4938441E+02
 -0.4704283E+02
 -0.4470124E+02
 -0.4235965E+02
 -0.4001806E+02
 -0.3767647E+02
 -0.3533488E+02
 -0.3299329E+02
 -0.3065171E+02
 -0.2831012E+02
 -0.2596853E+02
 -0.2362694E+02
 -0.2128535E+02
 -0.1894376E+02
 -0.1660217E+02
 -0.1426059E+02
 -0.1204844E+02
 -0.1020498E+02
 -0.8668762E+01
 -0.7388583E+01
 -0.6321767E+01
 -0.5432753E+01
 -0.4691909E+01
 -0.4074538E+01
 -0.3560063E+01
 -0.3131333E+01
 -0.2774059E+01
 -0.2476330E+01
 -0.2228223E+01
 -0.2021466E+01
 -0.1849170E+01
 -0.1705589E+01
 -0.1585939E+01
 -0.1486230E+01
 -0.1403139E+01
 -0.1333897E+01
 -0.1276195E+01
 -0.1228110E+01
 -0.1188040E+01
 -0.1154647E+01
 -0.1126820E+01
 -0.1103631E+01
 -0.1084307E+01
 -0.1068203E+01
 -0.1054784E+01
 -0.1043601E+01
 -0.1034282E+01
 -0.1026516E+01
 -0.1020044E+01
 -0.1014651E+01
 -0.1010157E+01
 -0.1006412E+01
 -0.1003291E+01
 -0.1000690E+01
 -0.9985226E+00
 -0.9967165E+00
 -0.9952114E+00
 -0.9939571E+00
 -0.9929119E+00
 -0.9920409E+00
 -0.9913151E+00
 -0.9907102E+00
 -0.9902062E+00
 -0.9897861E+00
 -0.9894361E+00
 -0.9891444E+00
 -0.9889013E+00
 -0.9886987E+00
 -0.9885299E+00
 -0.9883893E+00
 -0.9882720E+00
 -0.9881743E+00
 -0.9880929E+00
 -0.9880251E+00
 -0.9879686E+00
 -0.9879214E+00
 -0.9878822E+00
 -0.9878495E+00
 -0.9878222E+00
 -0.9877995E+00
 -0.9877806E+00
 -0.9877648E+00
 -0.9877516E+00
 -0.9877406E+00
 -0.9877315E+00
 -0.9877239E+00
 -0.9877176E+00
 -0.9877123E+00
 -0.9877079E+00
 -0.9877042E+00
 -0.9877012E+00
 -0.9876986E+00
 -0.9876965E+00
 -0.9876947E+00
 -0.9876932E+00
 -0.9876920E+00
 -0.9876910E+00
 -0.9876902E+00
 -0.9876894E+00
 -0.9876888E+00
 -0.9876884E+00
 -0.4903926E+02
 -0.4671404E+02
 -0.4438881E+02
 -0.4206359E+02
 -0.3973837E+02
 -0.3741315E+02
 -0.3508792E+02
 -0.3276270E+02
 -0.3043748E+02
 -0.2811225E+02
 -0.2578703E+02
 -0.2346181E+02
 -0.2113659E+02
 -0.1881136E+02
 -0.1648614E+02
 -0.1416092E+02
 -0.1196423E+02
 -0.1013365E+02
 -0.8608175E+01
 -0.7336943E+01
 -0.6277583E+01
 -0.5394783E+01
 -0.4659116E+01
 -0.4046061E+01
 -0.3535181E+01
 -0.3109448E+01
 -0.2754670E+01
 -0.2459023E+01
 -0.2212649E+01
 -0.2007338E+01
 -0.1836246E+01
 -0.1693668E+01
 -0.1574854E+01
 -0.1475842E+01
 -0.1393332E+01
 -0.1324574E+01
 -0.1267276E+01
 -0.1219527E+01
 -0.1179736E+01
 -0.1146577E+01
 -0.1118945E+01
 -0.1095918E+01
 -0.1076729E+01
 -0.1060738E+01
 -0.1047412E+01
 -0.1036307E+01
 -0.1027053E+01
 -0.1019341E+01
 -0.1012915E+01
 -0.1007560E+01
 -0.1003097E+01
 -0.9993777E+00
 -0.9962786E+00
 -0.9936960E+00
 -0.9915438E+00
 -0.9897503E+00
 -0.9882557E+00
 -0.9870102E+00
 -0.9859723E+00
 -0.9851074E+00
 -0.9843866E+00
 -0.9837860E+00
 -0.9832854E+00
 -0.9828683E+00
 -0.9825208E+00
 -0.9822311E+00
 -0.9819897E+00
 -0.9817885E+00
 -0.9816209E+00
 -0.9814813E+00
 -0.9813648E+00
 -0.9812678E+00
 -0.9811870E+00
 -0.9811196E+00
 -0.9810635E+00
 -0.9810168E+00
 -0.9809777E+00
 -0.9809452E+00
 -0.9809182E+00
 -0.9808956E+00
 -0.9808768E+00
 -0.9808611E+00
 -0.9808481E+00
 -0.9808372E+00
 -0.9808281E+00
 -0.9808206E+00
 -0.9808143E+00
 -0.9808090E+00
 -0.9808046E+00
 -0.9808010E+00
 -0.9807980E+00
 -0.9807954E+00
 -0.9807933E+00
 -0.9807916E+00
 -0.9807901E+00
 -0.9807889E+00
 -0.9807879E+00
 -0.9807870E+00
 -0.9807863E+00
 -0.9807857E+00
 -0.9807853E+00
 -0.4903926E+02
 -0.4671404E+02
 -0.4438882E+02
 -0.4206359E+02
 -0.3973837E+02
 -0.3741315E+02
 -0.3508792E+02
 -0.3276270E+02
 -0.3043748E+02
 -0.2811226E+02
 -0.2578703E+02
 -0.2346181E+02
 -0.2113659E+02
 -0.1881136E+02
 -0.1648614E+02
 -0.1416092E+02
 -0.1196423E+02
 -0.1013365E+02
 -0.8608175E+01
 -0.7336943E+01
 -0.6277583E+01
 -0.5394783E+01
 -0.4659116E+01
 -0.4046061E+01
 -0.3535181E+01
 -0.3109448E+01
 -0.2754670E+01
 -0.2459022E+01
 -0.2212649E+01
 -0.2007338E+01
 -0.1836245E+01
 -0.1693668E+01
 -0.1574854E+01
 -0.1475842E+01
 -0.1393332E+01
 -0.1324574E+01
 -0.1267275E+01
 -0.1219527E+01
 -0.1179736E+01
 -0.1146577E+01
 -0.1118945E+01
 -0.1095918E+01
 -0.1076728E+01
 -0.1060737E+01
 -0.1047412E+01
 -0.1036307E+01
 -0.1027053E+01
 -0.1019341E+01
 -0.1012915E+01
 -0.1007559E+01
 -0.1003096E+01
 -0.9993775E+00
 -0.9962783E+00
 -0.9936957E+00
 -0.9915435E+00
 -0.9897500E+00
 -0.9882554E+00
 -0.9870099E+00
 -0.9859720E+00
 -0.9851071E+00
 -0.9843864E+00
 -0.9837857E+00
 -0.9832852E+00
 -0.9828681E+00
 -0.9825205E+00
 -0.9822308E+00
 -0.9819894E+00
 -0.9817883E+00
 -0.9816207E+00
 -0.9814810E+00
 -0.9813646E+00
 -0.9812676E+00
 -0.9811867E+00
 -0.9811194E+00
 -0.9810632E+00
 -0.9810165E+00
 -0.9809775E+00
 -0.9809450E+00
 -0.9809179E+00
 -0.9808953E+00
 -0.9808766E+00
 -0.9808609E+00
 -0.9808478E+00
 -0.9808369E+00
 -0.9808279E+00
 -0.9808204E+00
 -0.9808140E+00
 -0.9808088E+00
 -0.9808044E+00
 -0.9808007E+00
 -0.9807977E+00
 -0.9807952E+00
 -0.9807931E+00
 -0.9807913E+00
 -0.9807899E+00
 -0.9807886E+00
 -0.9807876E+00
 -0.9807868E+00
 -0.9807861E+00
 -0.9807855E+00
 -0.9807850E+00
 -0.4861849E+02
 -0.4631322E+02
 -0.4400795E+02
 -0.4170267E+02
 -0.3939740E+02
 -0.3709213E+02
 -0.3478686E+02
 -0.3248159E+02
 -0.3017632E+02
 -0.2787104E+02
 -0.2556577E+02
 -0.2326050E+02
 -0.2095523E+02
 -0.1864996E+02
 -0.1634468E+02
 -0.1403941E+02
 -0.1186157E+02
 -0.1004670E+02
 -0.8534315E+01
 -0.7273990E+01
 -0.6223720E+01
 -0.5348495E+01
 -0.4619140E+01
 -0.4011344E+01
 -0.3504848E+01
 -0.3082768E+01
 -0.2731035E+01
 -0.2437923E+01
 -0.2193664E+01
 -0.1990115E+01
 -0.1820490E+01
 -0.1679136E+01
 -0.1561341E+01
 -0.1463179E+01
 -0.1381377E+01
 -0.1313209E+01
 -0.1256402E+01
 -0.1209063E+01
 -0.1169613E+01
 -0.1136739E+01
 -0.1109344E+01
 -0.1086514E+01
 -0.1067490E+01
 -0.1051636E+01
 -0.1038425E+01
 -0.1027415E+01
 -0.1018240E+01
 -0.1010595E+01
 -0.1004224E+01
 -0.9989142E+00
 -0.9944897E+00
 -0.9908026E+00
 -0.9877301E+00
 -0.9851696E+00
 -0.9830359E+00
 -0.9812577E+00
 -0.9797760E+00
 -0.9785413E+00
 -0.9775122E+00
 -0.9766547E+00
 -0.9759402E+00
 -0.9753447E+00
 -0.9748484E+00
 -0.9744349E+00
 -0.9740903E+00
 -0.9738031E+00
 -0.9735638E+00
 -0.9733644E+00
 -0.9731982E+00
 -0.9730597E+00
 -0.9729443E+00
 -0.9728481E+00
 -0.9727679E+00
 -0.9727012E+00
 -0.9726455E+00
 -0.9725992E+00
 -0.9725605E+00
 -0.9725283E+00
 -0.9725014E+00
 -0.9724791E+00
 -0.9724604E+00
 -0.9724449E+00
 -0.9724320E+00
 -0.9724212E+00
 -0.9724122E+00
 -0.9724047E+00
 -0.9723985E+00
 -0.9723933E+00
 -0.9723889E+00
 -0.9723853E+00
 -0.9723823E+00
 -0.9723797E+00
 -0.9723777E+00
 -0.9723759E+00
 -0.9723746E+00
 -0.9723732E+00
 -0.9723723E+00
 -0.9723715E+00
 -0.9723707E+00
 -0.9723701E+00
 -0.9723697E+00
 -0.4861849E+02
 -0.4631322E+02
 -0.4400795E+02
 -0.4170268E+02
 -0.3939740E+02
 -0.3709213E+02
 -0.3478686E+02
 -0.3248159E+02
 -0.3017632E+02
 -0.2787105E+02
 -0.2556577E+02
 -0.2326050E+02
 -0.2095523E+02
 -0.1864996E+02
 -0.1634468E+02
 -0.1403941E+02
 -0.1186157E+02
 -0.1004670E+02
 -0.8534315E+01
 -0.7273991E+01
 -0.6223720E+01
 -0.5348495E+01
 -0.4619140E+01
 -0.4011344E+01
 -0.3504848E+01
 -0.3082768E+01
 -0.2731035E+01
 -0.2437923E+01
 -0.2193664E+01
 -0.1990115E+01
 -0.1820490E+01
 -0.1679136E+01
 -0.1561341E+01
 -0.1463179E+01
 -0.1381377E+01
 -0.1313209E+01
 -0.1256402E+01
 -0.1209063E+01
 -0.1169613E+01
 -0.1136739E+01
 -0.1109344E+01
 -0.1086514E+01
 -0.1067490E+01
 -0.1051636E+01
 -0.1038425E+01
 -0.1027415E+01
 -0.1018240E+01
 -0.1010595E+01
 -0.1004224E+01
 -0.9989142E+00
 -0.9944897E+00
 -0.9908026E+00
 -0.9877301E+00
 -0.9851696E+00
 -0.9830359E+00
 -0.9812578E+00
 -0.9797760E+00
 -0.9785412E+00
 -0.9775122E+00
 -0.9766547E+00
 -0.9759402E+00
 -0.9753447E+00
 -0.9748484E+00
 -0.9744349E+00
 -0.9740903E+00
 -0.9738031E+00
 -0.9735638E+00
 -0.9733644E+00
 -0.9731982E+00
 -0.9730597E+00
 -0.9729443E+00
 -0.9728481E+00
 -0.9727679E+00
 -0.9727012E+00
 -0.9726455E+00
 -0.9725991E+00
 -0.9725605E+00
 -0.9725283E+00
 -0.9725015E+00
 -0.9724790E+00
 -0.9724604E+00
 -0.9724449E+00
 -0.9724320E+00
 -0.9724212E+00
 -0.9724122E+00
 -0.9724047E+00
 -0.9723985E+00
 -0.9723933E+00
 -0.9723889E+00
 -0.9723853E+00
 -0.9723823E+00
 -0.9723798E+00
 -0.9723777E+00
 -0.9723759E+00
 -0.9723745E+00
 -0.9723733E+00
 -0.9723723E+00
 -0.9723715E+00
 -0.9723707E+00
 -0.9723701E+00
 -0.9723697E+00
 -0.4812276E+02
 -0.4584099E+02
 -0.4355923E+02
 -0.4127746E+02
 -0.3899569E+02
 -0.3671392E+02
 -0.3443216E+02
 -0.3215039E+02
 -0.2986863E+02
 -0.2758686E+02
 -0.2530509E+02
 -0.2302333E+02
 -0.2074156E+02
 -0.1845979E+02
 -0.1617803E+02
 -0.1389626E+02
 -0.1174063E+02
 -0.9944264E+01
 -0.8447295E+01
 -0.7199822E+01
 -0.6160260E+01
 -0.5293959E+01
 -0.4572041E+01
 -0.3970443E+01
 -0.3469111E+01
 -0.3051335E+01
 -0.2703188E+01
 -0.2413065E+01
 -0.2171297E+01
 -0.1969823E+01
 -0.1801928E+01
 -0.1662015E+01
 -0.1545421E+01
 -0.1448260E+01
 -0.1367292E+01
 -0.1299819E+01
 -0.1243591E+01
 -0.1196735E+01
 -0.1157688E+01
 -0.1125148E+01
 -0.1098032E+01
 -0.1075436E+01
 -0.1056605E+01
 -0.1040913E+01
 -0.1027836E+01
 -0.1016939E+01
 -0.1007858E+01
 -0.1000290E+01
 -0.9939842E+00
 -0.9887289E+00
 -0.9843495E+00
 -0.9807000E+00
 -0.9776587E+00
 -0.9751244E+00
 -0.9730124E+00
 -0.9712524E+00
 -0.9697858E+00
 -0.9685636E+00
 -0.9675450E+00
 -0.9666963E+00
 -0.9659891E+00
 -0.9653996E+00
 -0.9649084E+00
 -0.9644991E+00
 -0.9641581E+00
 -0.9638738E+00
 -0.9636369E+00
 -0.9634395E+00
 -0.9632750E+00
 -0.9631380E+00
 -0.9630237E+00
 -0.9629285E+00
 -0.9628492E+00
 -0.9627831E+00
 -0.9627280E+00
 -0.9626821E+00
 -0.9626439E+00
 -0.9626120E+00
 -0.9625854E+00
 -0.9625633E+00
 -0.9625448E+00
 -0.9625295E+00
 -0.9625167E+00
 -0.9625059E+00
 -0.9624971E+00
 -0.9624897E+00
 -0.9624835E+00
 -0.9624783E+00
 -0.9624740E+00
 -0.9624705E+00
 -0.9624675E+00
 -0.9624649E+00
 -0.9624628E+00
 -0.9624612E+00
 -0.9624598E+00
 -0.9624586E+00
 -0.9624575E+00
 -0.9624568E+00
 -0.9624560E+00
 -0.9624555E+00
 -0.9624550E+00
 -0.4812276E+02
 -0.4584100E+02
 -0.4355923E+02
 -0.4127746E+02
 -0.3899569E+02
 -0.3671393E+02
 -0.3443216E+02
 -0.3215039E+02
 -0.2986863E+02
 -0.2758686E+02
 -0.2530510E+02
 -0.2302333E+02
 -0.2074156E+02
 -0.1845979E+02
 -0.1617803E+02
 -0.1389626E+02
 -0.1174063E+02
 -0.9944264E+01
 -0.8447296E+01
 -0.7199822E+01
 -0.6160261E+01
 -0.5293959E+01
 -0.4572042E+01
 -0.3970443E+01
 -0.3469111E+01
 -0.3051335E+01
 -0.2703188E+01
 -0.2413065E+01
 -0.2171297E+01
 -0.1969823E+01
 -0.1801928E+01
 -0.1662015E+01
 -0.1545421E+01
 -0.1448260E+01
 -0.1367292E+01
 -0.1299819E+01
 -0.1243591E+01
 -0.1196735E+01
 -0.1157688E+01
 -0.1125149E+01
 -0.1098033E+01
 -0.1075436E+01
 -0.1056605E+01
 -0.1040913E+01
 -0.1027836E+01
 -0.1016939E+01
 -0.1007858E+01
 -0.1000291E+01
 -0.9939842E+00
 -0.9887289E+00
 -0.9843495E+00
 -0.9807001E+00
 -0.9776589E+00
 -0.9751245E+00
 -0.9730125E+00
 -0.9712526E+00
 -0.9697859E+00
 -0.9685637E+00
 -0.9675452E+00
 -0.9666964E+00
 -0.9659891E+00
 -0.9653997E+00
 -0.9649085E+00
 -0.9644992E+00
 -0.9641581E+00
 -0.9638739E+00
 -0.9636370E+00
 -0.9634396E+00
 -0.9632751E+00
 -0.9631380E+00
 -0.9630238E+00
 -0.9629287E+00
 -0.9628493E+00
 -0.9627832E+00
 -0.9627281E+00
 -0.9626822E+00
 -0.9626439E+00
 -0.9626120E+00
 -0.9625855E+00
 -0.9625633E+00
 -0.9625449E+00
 -0.9625295E+00
 -0.9625167E+00
 -0.9625061E+00
 -0.9624972E+00
 -0.9624897E+00
 -0.9624835E+00
 -0.9624784E+00
 -0.9624741E+00
 -0.9624705E+00
 -0.9624676E+00
 -0.9624650E+00
 -0.9624630E+00
 -0.9624613E+00
 -0.9624599E+00
 -0.9624587E+00
 -0.9624577E+00
 -0.9624568E+00
 -0.9624561E+00
 -0.9624556E+00
 -0.9624551E+00
 -0.4755282E+02
 -0.4529808E+02
 -0.4304334E+02
 -0.4078859E+02
 -0.3853385E+02
 -0.3627911E+02
 -0.3402436E+02
 -0.3176962E+02
 -0.2951488E+02
 -0.2726014E+02
 -0.2500540E+02
 -0.2275065E+02
 -0.2049591E+02
 -0.1824117E+02
 -0.1598643E+02
 -0.1373168E+02
 -0.1160158E+02
 -0.9826490E+01
 -0.8347251E+01
 -0.7114552E+01
 -0.6087302E+01
 -0.5231261E+01
 -0.4517893E+01
 -0.3923420E+01
 -0.3428025E+01
 -0.3015197E+01
 -0.2671173E+01
 -0.2384486E+01
 -0.2145581E+01
 -0.1946493E+01
 -0.1780587E+01
 -0.1642331E+01
 -0.1527118E+01
 -0.1431108E+01
 -0.1351099E+01
 -0.1284425E+01
 -0.1228863E+01
 -0.1182561E+01
 -0.1143977E+01
 -0.1111823E+01
 -0.1085028E+01