 TITLE = "VectorSurfaceData"
VARIABLES = "x" "y" "z"
  "FullConvective"
  "FourierOnly"
  "Radiant"
  "Balance"
 ZONE T=Bnd4 DATAPACKING=Block
 N=356
 E=264
 ZONETYPE=FEQUADRILATERAL
 VarLocation=([4-7]=CellCentered)
 -0.1000000E+01
 -0.9994853E+00
 -0.1000000E+01
 -0.9994834E+00
 -0.1000000E+01
 -0.9994834E+00
 -0.1000000E+01
 -0.9994860E+00
 -0.9979451E+00
 -0.9979414E+00
 -0.9979414E+00
 -0.9979452E+00
 -0.9953786E+00
 -0.9953778E+00
 -0.9953778E+00
 -0.9953790E+00
 -0.9917892E+00
 -0.9917862E+00
 -0.9917862E+00
 -0.9917896E+00
 -0.9871809E+00
 -0.9871798E+00
 -0.9871798E+00
 -0.9871815E+00
 -0.9815586E+00
 -0.9815550E+00
 -0.9815550E+00
 -0.9815591E+00
 -0.9749277E+00
 -0.9749275E+00
 -0.9749275E+00
 -0.9749278E+00
 -0.9672939E+00
 -0.9672911E+00
 -0.9672911E+00
 -0.9672946E+00
 -0.9586671E+00
 -0.9586636E+00
 -0.9586636E+00
 -0.9586675E+00
 -0.9490548E+00
 -0.9490536E+00
 -0.9490536E+00
 -0.9490556E+00
 -0.9384679E+00
 -0.9384673E+00
 -0.9384673E+00
 -0.9384682E+00
 -0.9269156E+00
 -0.9269134E+00
 -0.9269134E+00
 -0.9269164E+00
 -0.9144118E+00
 -0.9144084E+00
 -0.9144084E+00
 -0.9144123E+00
 -0.9009688E+00
 -0.9009644E+00
 -0.9009644E+00
 -0.9009686E+00
 -0.8865987E+00
 -0.8865950E+00
 -0.8865950E+00
 -0.8865986E+00
 -0.8713178E+00
 -0.8713146E+00
 -0.8713147E+00
 -0.8713185E+00
 -0.8551418E+00
 -0.8551390E+00
 -0.8551390E+00
 -0.8551422E+00
 -0.8380879E+00
 -0.8380844E+00
 -0.8380844E+00
 -0.8380877E+00
 -0.8201720E+00
 -0.8201686E+00
 -0.8201686E+00
 -0.8201717E+00
 -0.8014134E+00
 -0.8014100E+00
 -0.8014100E+00
 -0.8014132E+00
 -0.7818312E+00
 -0.7818277E+00
 -0.7818277E+00
 -0.7818308E+00
 -0.7614457E+00
 -0.7614422E+00
 -0.7614422E+00
 -0.7614459E+00
 -0.7402778E+00
 -0.7402742E+00
 -0.7402742E+00
 -0.7402774E+00
 -0.7183493E+00
 -0.7183456E+00
 -0.7183456E+00
 -0.7183490E+00
 -0.6956825E+00
 -0.6956789E+00
 -0.6956789E+00
 -0.6956822E+00
 -0.6723008E+00
 -0.6722974E+00
 -0.6722974E+00
 -0.6723003E+00
 -0.6482282E+00
 -0.6482252E+00
 -0.6482252E+00
 -0.6482283E+00
 -0.6234896E+00
 -0.6234869E+00
 -0.6234868E+00
 -0.6234893E+00
 -0.5981104E+00
 -0.5981078E+00
 -0.5981078E+00
 -0.5981102E+00
 -0.5721166E+00
 -0.5721142E+00
 -0.5721142E+00
 -0.5721163E+00
 -0.5455348E+00
 -0.5455325E+00
 -0.5455325E+00
 -0.5455346E+00
 -0.5183920E+00
 -0.5183903E+00
 -0.5183902E+00
 -0.5183921E+00
 -0.4907171E+00
 -0.4907153E+00
 -0.4907153E+00
 -0.4907174E+00
 -0.4625380E+00
 -0.4625360E+00
 -0.4625360E+00
 -0.4625379E+00
 -0.4338838E+00
 -0.4338816E+00
 -0.4338816E+00
 -0.4338835E+00
 -0.4047830E+00
 -0.4047815E+00
 -0.4047815E+00
 -0.4047831E+00
 -0.3752666E+00
 -0.3752657E+00
 -0.3752656E+00
 -0.3752668E+00
 -0.3453649E+00
 -0.3453646E+00
 -0.3453646E+00
 -0.3453649E+00
 -0.3151079E+00
 -0.3151075E+00
 -0.3151075E+00
 -0.3151081E+00
 -0.2845274E+00
 -0.2845263E+00
 -0.2845263E+00
 -0.2845274E+00
 -0.2536543E+00
 -0.2536536E+00
 -0.2536536E+00
 -0.2536544E+00
 -0.2225209E+00
 -0.2225208E+00
 -0.2225208E+00
 -0.2225209E+00
 -0.1911585E+00
 -0.1911578E+00
 -0.1911578E+00
 -0.1911586E+00
 -0.1595998E+00
 -0.1595996E+00
 -0.1595996E+00
 -0.1595998E+00
 -0.1278771E+00
 -0.1278767E+00
 -0.1278767E+00
 -0.1278771E+00
 -0.9602296E-01
 -0.9602289E-01
 -0.9602289E-01
 -0.9602299E-01
 -0.6407019E-01
 -0.6406996E-01
 -0.6406996E-01
 -0.6407019E-01
 -0.3205154E-01
 -0.3205148E-01
 -0.3205148E-01
 -0.3205156E-01
  0.0000000E+00
  0.0000000E+00
  0.8881784E-15
  0.0000000E+00
  0.2886150E-01
  0.2886150E-01
  0.2886150E-01
  0.2886150E-01
  0.6261033E-01
  0.6261033E-01
  0.6261033E-01
  0.6261033E-01
  0.1020712E+00
  0.1020712E+00
  0.1020712E+00
  0.1020712E+00
  0.1482067E+00
  0.1482067E+00
  0.1482067E+00
  0.1482067E+00
  0.2021406E+00
  0.2021406E+00
  0.2021406E+00
  0.2021406E+00
  0.2651834E+00
  0.2651834E+00
  0.2651834E+00
  0.2651834E+00
  0.3388632E+00
  0.3388632E+00
  0.3388632E+00
  0.3388632E+00
  0.4249609E+00
  0.4249609E+00
  0.4249609E+00
  0.4249609E+00
  0.5255501E+00
  0.5255501E+00
  0.5255501E+00
  0.5255501E+00
  0.6430441E+00
  0.6430441E+00
  0.6430441E+00
  0.6430441E+00
  0.7802481E+00
  0.7802481E+00
  0.7802481E+00
  0.7802481E+00
  0.9404202E+00
  0.9404202E+00
  0.9404202E+00
  0.9404202E+00
  0.1127339E+01
  0.1127339E+01
  0.1127339E+01
  0.1127339E+01
  0.1345381E+01
  0.1345381E+01
  0.1345381E+01
  0.1345381E+01
  0.1599607E+01
  0.1599607E+01
  0.1599607E+01
  0.1599607E+01
  0.1895853E+01
  0.1895853E+01
  0.1895853E+01
  0.1895853E+01
  0.2240842E+01
  0.2240842E+01
  0.2240842E+01
  0.2240842E+01
  0.2642286E+01
  0.2642286E+01
  0.2642286E+01
  0.2642286E+01
  0.3109011E+01
  0.3109011E+01
  0.3109011E+01
  0.3109011E+01
  0.3651075E+01
  0.3651075E+01
  0.3651075E+01
  0.3651075E+01
  0.4279886E+01
  0.4279886E+01
  0.4279886E+01
  0.4279886E+01
  0.5008316E+01
  0.5008316E+01
  0.5008316E+01
  0.5008316E+01
  0.5850793E+01
  0.5850793E+01
  0.5850793E+01
  0.5850793E+01
  0.6823364E+01
  0.6823364E+01
  0.6823364E+01
  0.6823364E+01
  0.7943715E+01
  0.7943715E+01
  0.7943715E+01
  0.7943715E+01
  0.9231117E+01
  0.9231117E+01
  0.9231117E+01
  0.9231117E+01
  0.1070629E+02
  0.1070629E+02
  0.1070629E+02
  0.1070629E+02
  0.1239113E+02
  0.1239113E+02
  0.1239113E+02
  0.1239113E+02
  0.1430832E+02
  0.1430832E+02
  0.1430832E+02
  0.1430832E+02
  0.1648070E+02
  0.1648070E+02
  0.1648070E+02
  0.1648070E+02
  0.1893051E+02
  0.1893051E+02
  0.1893051E+02
  0.1893051E+02
  0.2167831E+02
  0.2167831E+02
  0.2167831E+02
  0.2167831E+02
  0.2474178E+02
  0.2474178E+02
  0.2474178E+02
  0.2474178E+02
  0.2813426E+02
  0.2813426E+02
  0.2813426E+02
  0.2813426E+02
  0.3186315E+02
  0.3186315E+02
  0.3186315E+02
  0.3186315E+02
  0.3592838E+02
  0.3592838E+02
  0.3592838E+02
  0.3592838E+02
  0.4032088E+02
  0.4032088E+02
  0.4032088E+02
  0.4032088E+02
  0.4502143E+02
  0.4502143E+02
  0.4502143E+02
  0.4502143E+02
  0.5000000E+02
  0.5000000E+02
  0.5000000E+02
  0.5000000E+02
  0.0000000E+00
  0.3205154E-01
  0.0000000E+00
  0.3205148E-01
  0.0000000E+00
  0.3205148E-01
  0.0000000E+00
  0.3205156E-01
  0.6407019E-01
  0.6406996E-01
  0.6406996E-01
  0.6407019E-01
  0.9602296E-01
  0.9602289E-01
  0.9602289E-01
  0.9602299E-01
  0.1278771E+00
  0.1278767E+00
  0.1278767E+00
  0.1278771E+00
  0.1595998E+00
  0.1595996E+00
  0.1595996E+00
  0.1595998E+00
  0.1911585E+00
  0.1911578E+00
  0.1911578E+00
  0.1911586E+00
  0.2225209E+00
  0.2225208E+00
  0.2225208E+00
  0.2225209E+00
  0.2536543E+00
  0.2536536E+00
  0.2536536E+00
  0.2536544E+00
  0.2845274E+00
  0.2845263E+00
  0.2845263E+00
  0.2845274E+00
  0.3151079E+00
  0.3151075E+00
  0.3151075E+00
  0.3151081E+00
  0.3453649E+00
  0.3453646E+00
  0.3453646E+00
  0.3453649E+00
  0.3752666E+00
  0.3752657E+00
  0.3752656E+00
  0.3752668E+00
  0.4047830E+00
  0.4047815E+00
  0.4047815E+00
  0.4047831E+00
  0.4338838E+00
  0.4338816E+00
  0.4338816E+00
  0.4338835E+00
  0.4625380E+00
  0.4625360E+00
  0.4625360E+00
  0.4625379E+00
  0.4907171E+00
  0.4907153E+00
  0.4907153E+00
  0.4907174E+00
  0.5183920E+00
  0.5183903E+00
  0.5183902E+00
  0.5183921E+00
  0.5455348E+00
  0.5455325E+00
  0.5455325E+00
  0.5455346E+00
  0.5721166E+00
  0.5721142E+00
  0.5721142E+00
  0.5721163E+00
  0.5981104E+00
  0.5981078E+00
  0.5981078E+00
  0.5981102E+00
  0.6234896E+00
  0.6234869E+00
  0.6234868E+00
  0.6234893E+00
  0.6482282E+00
  0.6482252E+00
  0.6482252E+00
  0.6482283E+00
  0.6723008E+00
  0.6722974E+00
  0.6722974E+00
  0.6723003E+00
  0.6956825E+00
  0.6956789E+00
  0.6956789E+00
  0.6956822E+00
  0.7183493E+00
  0.7183456E+00
  0.7183456E+00
  0.7183490E+00
  0.7402778E+00
  0.7402742E+00
  0.7402742E+00
  0.7402774E+00
  0.7614457E+00
  0.7614422E+00
  0.7614422E+00
  0.7614459E+00
  0.7818312E+00
  0.7818277E+00
  0.7818277E+00
  0.7818308E+00
  0.8014134E+00
  0.8014100E+00
  0.8014100E+00
  0.8014132E+00
  0.8201720E+00
  0.8201686E+00
  0.8201686E+00
  0.8201717E+00
  0.8380879E+00
  0.8380844E+00
  0.8380844E+00
  0.8380877E+00
  0.8551418E+00
  0.8551390E+00
  0.8551390E+00
  0.8551422E+00
  0.8713178E+00
  0.8713146E+00
  0.8713147E+00
  0.8713185E+00
  0.8865987E+00
  0.8865950E+00
  0.8865950E+00
  0.8865986E+00
  0.9009688E+00
  0.9009644E+00
  0.9009644E+00
  0.9009686E+00
  0.9144118E+00
  0.9144084E+00
  0.9144084E+00
  0.9144123E+00
  0.9269156E+00
  0.9269134E+00
  0.9269134E+00
  0.9269164E+00
  0.9384679E+00
  0.9384673E+00
  0.9384673E+00
  0.9384682E+00
  0.9490548E+00
  0.9490536E+00
  0.9490536E+00
  0.9490556E+00
  0.9586671E+00
  0.9586636E+00
  0.9586636E+00
  0.9586675E+00
  0.9672939E+00
  0.9672911E+00
  0.9672911E+00
  0.9672946E+00
  0.9749277E+00
  0.9749275E+00
  0.9749275E+00
  0.9749278E+00
  0.9815586E+00
  0.9815550E+00
  0.9815550E+00
  0.9815591E+00
  0.9871809E+00
  0.9871798E+00
  0.9871798E+00
  0.9871815E+00
  0.9917892E+00
  0.9917862E+00
  0.9917862E+00
  0.9917896E+00
  0.9953786E+00
  0.9953778E+00
  0.9953778E+00
  0.9953790E+00
  0.9979451E+00
  0.9979414E+00
  0.9979414E+00
  0.9979452E+00
  0.9994853E+00
  0.9994834E+00
  0.9994834E+00
  0.9994860E+00
  0.1000000E+01
  0.1000000E+01
  0.1000000E+01
  0.1000000E+01
  0.1000000E+01
  0.1000000E+01
  0.1000000E+01
  0.1000000E+01
  0.1000000E+01
  0.1000000E+01
  0.1000000E+01
  0.1000000E+01
  0.1000000E+01
  0.1000000E+01
  0.1000000E+01
  0.1000000E+01
  0.1000000E+01
  0.1000000E+01
  0.1000000E+01
  0.1000000E+01
  0.1000000E+01
  0.1000000E+01
  0.1000000E+01
  0.1000000E+01
  0.1000000E+01
  0.1000000E+01
  0.1000000E+01
  0.1000000E+01
  0.1000000E+01
  0.1000000E+01
  0.1000000E+01
  0.1000000E+01
  0.1000000E+01
  0.1000000E+01
  0.1000000E+01
  0.1000000E+01
  0.1000000E+01
  0.1000000E+01
  0.1000000E+01
  0.1000000E+01
  0.1000000E+01
  0.1000000E+01
  0.1000000E+01
  0.1000000E+01
  0.1000000E+01
  0.1000000E+01
  0.1000000E+01
  0.1000000E+01
  0.1000000E+01
  0.1000000E+01
  0.1000000E+01
  0.1000000E+01
  0.1000000E+01
  0.1000000E+01
  0.1000000E+01
  0.1000000E+01
  0.1000000E+01
  0.1000000E+01
  0.1000000E+01
  0.1000000E+01
  0.1000000E+01
  0.1000000E+01
  0.1000000E+01
  0.1000000E+01
  0.1000000E+01
  0.1000000E+01
  0.1000000E+01
  0.1000000E+01
  0.1000000E+01
  0.1000000E+01
  0.1000000E+01
  0.1000000E+01
  0.1000000E+01
  0.1000000E+01
  0.1000000E+01
  0.1000000E+01
  0.1000000E+01
  0.1000000E+01
  0.1000000E+01
  0.1000000E+01
  0.1000000E+01
  0.1000000E+01
  0.1000000E+01
  0.1000000E+01
  0.1000000E+01
  0.1000000E+01
  0.1000000E+01
  0.1000000E+01
  0.1000000E+01
  0.1000000E+01
  0.1000000E+01
  0.1000000E+01
  0.1000000E+01
  0.1000000E+01
  0.1000000E+01
  0.1000000E+01
  0.1000000E+01
  0.1000000E+01
  0.1000000E+01
  0.1000000E+01
  0.1000000E+01
  0.1000000E+01
  0.1000000E+01
  0.1000000E+01
  0.1000000E+01
  0.1000000E+01
  0.1000000E+01
  0.1000000E+01
  0.1000000E+01
  0.1000000E+01
  0.1000000E+01
  0.1000000E+01
  0.1000000E+01
  0.1000000E+01
  0.1000000E+01
  0.1000000E+01
  0.1000000E+01
  0.1000000E+01
  0.1000000E+01
  0.1000000E+01
  0.1000000E+01
  0.1000000E+01
  0.1000000E+01
  0.1000000E+01
  0.1000000E+01
  0.1000000E+01
  0.1000000E+01
  0.1000000E+01
  0.1000000E+01
  0.1000000E+01
  0.1000000E+01
  0.1000000E+01
  0.1000000E+01
  0.1000000E+01
  0.1000000E+01
  0.1000000E+01
  0.1000000E+01
  0.1000000E+01
  0.1000000E+01
  0.1000000E+01
  0.1000000E+01
  0.1000000E+01
  0.1000000E+01
  0.1000000E+01
  0.1000000E+01
  0.1000000E+01
  0.1000000E+01
  0.1000000E+01
  0.1000000E+01
  0.1000000E+01
  0.1000000E+01
  0.1000000E+01
  0.1000000E+01
  0.1000000E+01
  0.1000000E+01
  0.1000000E+01
  0.1000000E+01
  0.1000000E+01
  0.1000000E+01
  0.1000000E+01
  0.0000000E+00
  0.0000000E+00
  0.1000000E-01
  0.1000000E-01
  0.2000000E-01
  0.2000000E-01
  0.3000000E-01
  0.3000000E-01
  0.0000000E+00
  0.1000000E-01
  0.2000000E-01
  0.3000000E-01
  0.0000000E+00
  0.1000000E-01
  0.2000000E-01
  0.3000000E-01
  0.0000000E+00
  0.1000000E-01
  0.2000000E-01
  0.3000000E-01
  0.0000000E+00
  0.1000000E-01
  0.2000000E-01
  0.3000000E-01
  0.0000000E+00
  0.1000000E-01
  0.2000000E-01
  0.3000000E-01
  0.0000000E+00
  0.1000000E-01
  0.2000000E-01
  0.3000000E-01
  0.0000000E+00
  0.1000000E-01
  0.2000000E-01
  0.3000000E-01
  0.0000000E+00
  0.1000000E-01
  0.2000000E-01
  0.3000000E-01
  0.0000000E+00
  0.1000000E-01
  0.2000000E-01
  0.3000000E-01
  0.0000000E+00
  0.1000000E-01
  0.2000000E-01
  0.3000000E-01
  0.0000000E+00
  0.1000000E-01
  0.2000000E-01
  0.3000000E-01
  0.0000000E+00
  0.1000000E-01
  0.2000000E-01
  0.3000000E-01
  0.0000000E+00
  0.1000000E-01
  0.2000000E-01
  0.3000000E-01
  0.0000000E+00
  0.1000000E-01
  0.2000000E-01
  0.3000000E-01
  0.0000000E+00
  0.1000000E-01
  0.2000000E-01
  0.3000000E-01
  0.0000000E+00
  0.1000000E-01
  0.2000000E-01
  0.3000000E-01
  0.0000000E+00
  0.1000000E-01
  0.2000000E-01
  0.3000000E-01
  0.0000000E+00
  0.1000000E-01
  0.2000000E-01
  0.3000000E-01
  0.0000000E+00
  0.1000000E-01
  0.2000000E-01
  0.3000000E-01
  0.0000000E+00
  0.1000000E-01
  0.2000000E-01
  0.3000000E-01
  0.0000000E+00
  0.1000000E-01
  0.2000000E-01
  0.3000000E-01
  0.0000000E+00
  0.1000000E-01
  0.2000000E-01
  0.3000000E-01
  0.0000000E+00
  0.1000000E-01
  0.2000000E-01
  0.3000000E-01
  0.0000000E+00
  0.1000000E-01
  0.2000000E-01
  0.3000000E-01
  0.0000000E+00
  0.1000000E-01
  0.2000000E-01
  0.3000000E-01
  0.0000000E+00
  0.1000000E-01
  0.2000000E-01
  0.3000000E-01
  0.0000000E+00
  0.1000000E-01
  0.2000000E-01
  0.3000000E-01
  0.0000000E+00
  0.1000000E-01
  0.2000000E-01
  0.3000000E-01
  0.0000000E+00
  0.1000000E-01
  0.2000000E-01
  0.3000000E-01
  0.0000000E+00
  0.1000000E-01
  0.2000000E-01
  0.3000000E-01
  0.0000000E+00
  0.1000000E-01
  0.2000000E-01
  0.3000000E-01
  0.0000000E+00
  0.1000000E-01
  0.2000000E-01
  0.3000000E-01
  0.0000000E+00
  0.1000000E-01
  0.2000000E-01
  0.3000000E-01
  0.0000000E+00
  0.1000000E-01
  0.2000000E-01
  0.3000000E-01
  0.0000000E+00
  0.1000000E-01
  0.2000000E-01
  0.3000000E-01
  0.0000000E+00
  0.1000000E-01
  0.2000000E-01
  0.3000000E-01
  0.0000000E+00
  0.1000000E-01
  0.2000000E-01
  0.3000000E-01
  0.0000000E+00
  0.1000000E-01
  0.2000000E-01
  0.3000000E-01
  0.0000000E+00
  0.1000000E-01
  0.2000000E-01
  0.3000000E-01
  0.0000000E+00
  0.1000000E-01
  0.2000000E-01
  0.3000000E-01
  0.0000000E+00
  0.1000000E-01
  0.2000000E-01
  0.3000000E-01
  0.0000000E+00
  0.1000000E-01
  0.2000000E-01
  0.3000000E-01
  0.0000000E+00
  0.1000000E-01
  0.2000000E-01
  0.3000000E-01
  0.0000000E+00
  0.1000000E-01
  0.2000000E-01
  0.3000000E-01
  0.0000000E+00
  0.1000000E-01
  0.2000000E-01
  0.3000000E-01
  0.0000000E+00
  0.1000000E-01
  0.2000000E-01
  0.3000000E-01
  0.0000000E+00
  0.1000000E-01
  0.2000000E-01
  0.3000000E-01
  0.0000000E+00
  0.1000000E-01
  0.2000000E-01
  0.3000000E-01
  0.0000000E+00
  0.1000000E-01
  0.2000000E-01
  0.3000000E-01
  0.0000000E+00
  0.1000000E-01
  0.2000000E-01
  0.3000000E-01
  0.0000000E+00
  0.1000000E-01
  0.2000000E-01
  0.3000000E-01
  0.0000000E+00
  0.1000000E-01
  0.2000000E-01
  0.3000000E-01
  0.0000000E+00
  0.1000000E-01
  0.2000000E-01
  0.3000000E-01
  0.0000000E+00
  0.1000000E-01
  0.2000000E-01
  0.3000000E-01
  0.0000000E+00
  0.1000000E-01
  0.2000000E-01
  0.3000000E-01
  0.0000000E+00
  0.1000000E-01
  0.2000000E-01
  0.3000000E-01
  0.0000000E+00
  0.1000000E-01
  0.2000000E-01
  0.3000000E-01
  0.0000000E+00
  0.1000000E-01
  0.2000000E-01
  0.3000000E-01
  0.0000000E+00
  0.1000000E-01
  0.2000000E-01
  0.3000000E-01
  0.0000000E+00
  0.1000000E-01
  0.2000000E-01
  0.3000000E-01
  0.0000000E+00
  0.1000000E-01
  0.2000000E-01
  0.3000000E-01
  0.0000000E+00
  0.1000000E-01
  0.2000000E-01
  0.3000000E-01
  0.0000000E+00
  0.1000000E-01
  0.2000000E-01
  0.3000000E-01
  0.0000000E+00
  0.1000000E-01
  0.2000000E-01
  0.3000000E-01
  0.0000000E+00
  0.1000000E-01
  0.2000000E-01
  0.3000000E-01
  0.0000000E+00
  0.1000000E-01
  0.2000000E-01
  0.3000000E-01
  0.0000000E+00
  0.1000000E-01
  0.2000000E-01
  0.3000000E-01
  0.0000000E+00
  0.1000000E-01
  0.2000000E-01
  0.3000000E-01
  0.0000000E+00
  0.1000000E-01
  0.2000000E-01
  0.3000000E-01
  0.0000000E+00
  0.1000000E-01
  0.2000000E-01
  0.3000000E-01
  0.0000000E+00
  0.1000000E-01
  0.2000000E-01
  0.3000000E-01
  0.0000000E+00
  0.1000000E-01
  0.2000000E-01
  0.3000000E-01
  0.0000000E+00
  0.1000000E-01
  0.2000000E-01
  0.3000000E-01
  0.0000000E+00
  0.1000000E-01
  0.2000000E-01
  0.3000000E-01
  0.0000000E+00
  0.1000000E-01
  0.2000000E-01
  0.3000000E-01
  0.0000000E+00
  0.1000000E-01
  0.2000000E-01
  0.3000000E-01
  0.0000000E+00
  0.1000000E-01
  0.2000000E-01
  0.3000000E-01
  0.0000000E+00
  0.1000000E-01
  0.2000000E-01
  0.3000000E-01
  0.0000000E+00
  0.1000000E-01
  0.2000000E-01
  0.3000000E-01
  0.0000000E+00
  0.1000000E-01
  0.2000000E-01
  0.3000000E-01
  0.0000000E+00
  0.1000000E-01
  0.2000000E-01
  0.3000000E-01
  0.0000000E+00
  0.1000000E-01
  0.2000000E-01
  0.3000000E-01
  0.0000000E+00
  0.1000000E-01
  0.2000000E-01
  0.3000000E-01
  0.0000000E+00
  0.1000000E-01
  0.2000000E-01
  0.3000000E-01
  0.0000000E+00
  0.1000000E-01
  0.2000000E-01
  0.3000000E-01
  0.0000000E+00
  0.1000000E-01
  0.2000000E-01
  0.3000000E-01
  0.0000000E+00
  0.1000000E-01
  0.2000000E-01
  0.3000000E-01
  0.5307767E+04
  0.5307485E+04
  0.5307827E+04
  0.5341541E+04
  0.5341263E+04
  0.5341631E+04
  0.5345183E+04
  0.5345018E+04
  0.5345357E+04
  0.5346279E+04
  0.5346029E+04
  0.5346397E+04
  0.5333641E+04
  0.5333099E+04
  0.5333492E+04
  0.5308219E+04
  0.5307413E+04
  0.5307940E+04
  0.5272271E+04
  0.5272710E+04
  0.5272196E+04
  0.5225577E+04
  0.5225041E+04
  0.5225872E+04
  0.5172387E+04
  0.5171948E+04
  0.5172705E+04
  0.5111091E+04
  0.5111102E+04
  0.5111057E+04
  0.5043095E+04
  0.5043015E+04
  0.5042940E+04
  0.4968434E+04
  0.4967471E+04
  0.4968137E+04
  0.4888285E+04
  0.4887558E+04
  0.4887944E+04
  0.4801615E+04
  0.4801358E+04
  0.4802005E+04
  0.4710836E+04
  0.4710150E+04
  0.4710291E+04
  0.4614297E+04
  0.4614216E+04
  0.4614722E+04
  0.4512927E+04
  0.4512827E+04
  0.4513200E+04
  0.4408750E+04
  0.4407705E+04
  0.4407899E+04
  0.4299247E+04
  0.4298786E+04
  0.4298982E+04
  0.4185799E+04
  0.4185571E+04
  0.4186062E+04
  0.4069815E+04
  0.4069305E+04
  0.4069734E+04
  0.3948945E+04
  0.3948301E+04
  0.3948929E+04
  0.3825470E+04
  0.3825010E+04
  0.3825171E+04
  0.3700589E+04
  0.3699979E+04
  0.3700507E+04
  0.3573281E+04
  0.3572623E+04
  0.3573012E+04
  0.3443134E+04
  0.3442676E+04
  0.3443090E+04
  0.3317828E+04
  0.3317418E+04
  0.3317933E+04
  0.3193075E+04
  0.3192464E+04
  0.3192515E+04
  0.3059703E+04
  0.3059159E+04
  0.3059992E+04
  0.2929611E+04
  0.2929142E+04
  0.2929402E+04
  0.2800781E+04
  0.2800251E+04
  0.2800826E+04
  0.2670945E+04
  0.2670669E+04
  0.2670890E+04
  0.2541587E+04
  0.2540992E+04
  0.2541601E+04
  0.2416185E+04
  0.2415436E+04
  0.2415853E+04
  0.2290341E+04
  0.2289263E+04
  0.2289774E+04
  0.2166000E+04
  0.2165799E+04
  0.2166532E+04
  0.2043146E+04
  0.2043085E+04
  0.2043143E+04
  0.1927798E+04
  0.1928265E+04
  0.1927595E+04
  0.1807356E+04
  0.1806701E+04
  0.1807483E+04
  0.1695027E+04
  0.1693770E+04
  0.1694700E+04
  0.1577308E+04
  0.1576814E+04
  0.1577490E+04
  0.1478836E+04
  0.1478720E+04
  0.1478588E+04
  0.1361325E+04
  0.1361562E+04
  0.1361393E+04
  0.1272186E+04
  0.1271713E+04
  0.1272064E+04
  0.1157460E+04
  0.1157440E+04
  0.1157507E+04
  0.1088965E+04
  0.1088830E+04
  0.1088903E+04
  0.9631556E+03
  0.9618891E+03
  0.9631822E+03
  0.9422746E+03
  0.9423927E+03
  0.9422255E+03
  0.6909359E+03
  0.6906383E+03
  0.6909518E+03
  0.8027689E+03
  0.8026237E+03
  0.8028783E+03
  0.7480245E+03
  0.7478080E+03
  0.7480684E+03
  0.7322640E+03
  0.7320174E+03
  0.7322949E+03
  0.7282144E+03
  0.7279494E+03
  0.7282344E+03
  0.7245575E+03
  0.7242799E+03
  0.7245707E+03
  0.7200369E+03
  0.7197564E+03
  0.7200466E+03
  0.7155179E+03
  0.7152407E+03
  0.7155251E+03
  0.7111883E+03
  0.7109125E+03
  0.7111920E+03
  0.7070023E+03
  0.7067200E+03
  0.7069988E+03
  0.7035728E+03
  0.7032821E+03
  0.7035593E+03
  0.7014820E+03
  0.7012019E+03
  0.7014620E+03
  0.6994214E+03
  0.6991969E+03
  0.6994082E+03
  0.6949966E+03
  0.6948734E+03
  0.6950093E+03
  0.6868520E+03
  0.6868166E+03
  0.6868966E+03
  0.6776180E+03
  0.6775583E+03
  0.6776717E+03
  0.6707488E+03
  0.6704533E+03
  0.6707520E+03
  0.6689733E+03
  0.6682200E+03
  0.6688566E+03
  0.6638505E+03
  0.6623361E+03
  0.6635021E+03
  0.6581519E+03
  0.6558189E+03
  0.6575325E+03
  0.6485589E+03
  0.6453097E+03
  0.6476062E+03
  0.6337919E+03
  0.6293408E+03
  0.6323980E+03
  0.6206127E+03
  0.6149555E+03
  0.6187633E+03
  0.5996296E+03
  0.5924972E+03
  0.5972057E+03
  0.5829884E+03
  0.5741989E+03
  0.5798741E+03
  0.5605105E+03
  0.5500353E+03
  0.5567389E+03
  0.5416941E+03
  0.5297367E+03
  0.5373530E+03
  0.5240113E+03
  0.5108160E+03
  0.5193239E+03
  0.5079055E+03
  0.4934232E+03
  0.5028066E+03
  0.4898331E+03
  0.4745962E+03
  0.4847164E+03
  0.4740177E+03
  0.4580486E+03
  0.4689924E+03
  0.4631534E+03
  0.4464077E+03
  0.4582940E+03
  0.4502879E+03
  0.4328064E+03
  0.4457597E+03
  0.4398649E+03
  0.4218194E+03
  0.4358415E+03
  0.4249416E+03
  0.4070008E+03
  0.4215453E+03
  0.4123694E+03
  0.3945019E+03
  0.4096266E+03
  0.4020878E+03
  0.3842129E+03
  0.4001012E+03
  0.3943696E+03
  0.3763852E+03
  0.3929748E+03
  0.3897159E+03
  0.3714441E+03
  0.3889724E+03
  0.3868339E+03
  0.3682268E+03
  0.3866979E+03
  0.5307767E+04
  0.5307485E+04
  0.5307827E+04
  0.5341541E+04
  0.5341263E+04
  0.5341631E+04
  0.5345183E+04
  0.5345018E+04
  0.5345357E+04
  0.5346279E+04
  0.5346029E+04
  0.5346397E+04
  0.5333641E+04
  0.5333099E+04
  0.5333492E+04
  0.5308219E+04
  0.5307413E+04
  0.5307940E+04
  0.5272271E+04
  0.5272710E+04
  0.5272196E+04
  0.5225577E+04
  0.5225041E+04
  0.5225872E+04
  0.5172387E+04
  0.5171948E+04
  0.5172705E+04
  0.5111091E+04
  0.5111102E+04
  0.5111057E+04
  0.5043095E+04
  0.5043015E+04
  0.5042940E+04
  0.4968434E+04
  0.4967471E+04
  0.4968137E+04
  0.4888285E+04
  0.4887558E+04
  0.4887944E+04
  0.4801615E+04
  0.4801358E+04
  0.4802005E+04
  0.4710836E+04
  0.4710150E+04
  0.4710291E+04
  0.4614297E+04
  0.4614216E+04
  0.4614722E+04
  0.4512927E+04
  0.4512827E+04
  0.4513200E+04
  0.4408750E+04
  0.4407705E+04
  0.4407899E+04
  0.4299247E+04
  0.4298786E+04
  0.4298982E+04
  0.4185799E+04
  0.4185571E+04
  0.4186062E+04
  0.4069815E+04
  0.4069305E+04
  0.4069734E+04
  0.3948945E+04
  0.3948301E+04
  0.3948929E+04
  0.3825470E+04
  0.3825010E+04
  0.3825171E+04
  0.3700589E+04
  0.3699979E+04
  0.3700507E+04
  0.3573281E+04
  0.3572623E+04
  0.3573012E+04
  0.3443134E+04
  0.3442676E+04
  0.3443090E+04
  0.3317828E+04
  0.3317418E+04
  0.3317933E+04
  0.3193075E+04
  0.3192464E+04
  0.3192515E+04
  0.3059703E+04
  0.3059159E+04
  0.3059992E+04
  0.2929611E+04
  0.2929142E+04
  0.2929402E+04
  0.2800781E+04
  0.2800251E+04
  0.2800826E+04
  0.2670945E+04
  0.2670669E+04
  0.2670890E+04
  0.2541587E+04
  0.2540992E+04
  0.2541601E+04
  0.2416185E+04
  0.2415436E+04
  0.2415853E+04
  0.2290341E+04
  0.2289263E+04
  0.2289774E+04
  0.2166000E+04
  0.2165799E+04
  0.2166532E+04
  0.2043146E+04
  0.2043085E+04
  0.2043143E+04
  0.1927798E+04
  0.1928265E+04
  0.1927595E+04
  0.1807356E+04
  0.1806701E+04
  0.1807483E+04
  0.1695027E+04
  0.1693770E+04
  0.1694700E+04
  0.1577308E+04
  0.1576814E+04
  0.1577490E+04
  0.1478836E+04
  0.1478720E+04
  0.1478588E+04
  0.1361325E+04
  0.1361562E+04
  0.1361393E+04
  0.1272186E+04
  0.1271713E+04
  0.1272064E+04
  0.1157460E+04
  0.1157440E+04
  0.1157507E+04
  0.1088965E+04
  0.1088830E+04
  0.1088903E+04
  0.9631556E+03
  0.9618891E+03
  0.9631822E+03
  0.9422746E+03
  0.9423927E+03
  0.9422255E+03
  0.6909359E+03
  0.6906383E+03
  0.6909518E+03
  0.8027689E+03
  0.8026237E+03
  0.8028783E+03
  0.7480245E+03
  0.7478080E+03
  0.7480684E+03
  0.7322640E+03
  0.7320174E+03
  0.7322949E+03
  0.7282144E+03
  0.7279494E+03
  0.7282344E+03
  0.7245575E+03
  0.7242799E+03
  0.7245707E+03
  0.7200369E+03
  0.7197564E+03
  0.7200466E+03
  0.7155179E+03
  0.7152407E+03
  0.7155251E+03
  0.7111883E+03
  0.7109125E+03
  0.7111920E+03
  0.7070023E+03
  0.7067200E+03
  0.7069988E+03
  0.7035728E+03
  0.7032821E+03
  0.7035593E+03
  0.7014820E+03
  0.7012019E+03
  0.7014620E+03
  0.6994214E+03
  0.6991969E+03
  0.6994082E+03
  0.6949966E+03
  0.6948734E+03
  0.6950093E+03
  0.6868520E+03
  0.6868166E+03
  0.6868966E+03
  0.6776180E+03
  0.6775583E+03
  0.6776717E+03
  0.6707488E+03
  0.6704533E+03
  0.6707520E+03
  0.6689733E+03
  0.6682200E+03
  0.6688566E+03
  0.6638505E+03
  0.6623361E+03
  0.6635021E+03
  0.6581519E+03
  0.6558189E+03
  0.6575325E+03
  0.6485589E+03
  0.6453097E+03
  0.6476062E+03
  0.6337919E+03
  0.6293408E+03
  0.6323980E+03
  0.6206127E+03
  0.6149555E+03
  0.6187633E+03
  0.5996296E+03
  0.5924972E+03
  0.5972057E+03
  0.5829884E+03
  0.5741989E+03
  0.5798741E+03
  0.5605105E+03
  0.5500353E+03
  0.5567389E+03
  0.5416941E+03
  0.5297367E+03
  0.5373530E+03
  0.5240113E+03
  0.5108160E+03
  0.5193239E+03
  0.5079055E+03
  0.4934232E+03
  0.5028066E+03
  0.4898331E+03
  0.4745962E+03
  0.4847164E+03
  0.4740177E+03
  0.4580486E+03
  0.4689924E+03
  0.4631534E+03
  0.4464077E+03
  0.4582940E+03
  0.4502879E+03
  0.4328064E+03
  0.4457597E+03
  0.4398649E+03
  0.4218194E+03
  0.4358415E+03
  0.4249416E+03
  0.4070008E+03
  0.4215453E+03
  0.4123694E+03
  0.3945019E+03
  0.4096266E+03
  0.4020878E+03
  0.3842129E+03
  0.4001012E+03
  0.3943696E+03
  0.3763852E+03
  0.3929748E+03
  0.3897159E+03
  0.3714441E+03
  0.3889724E+03
  0.3868339E+03
  0.3682268E+03
  0.3866979E+03
  0.1928063E+03
  0.1928063E+03
  0.1928063E+03
  0.1928063E+03
  0.1928063E+03
  0.1928063E+03
  0.1928063E+03
  0.1928063E+03
  0.1928063E+03
  0.1928063E+03
  0.1928063E+03
  0.1928063E+03
  0.1928063E+03
  0.1928063E+03
  0.1928063E+03
  0.1928063E+03
  0.1928063E+03
  0.1928063E+03
  0.1928063E+03
  0.1928063E+03
  0.1928063E+03
  0.1928063E+03
  0.1928063E+03
  0.1928063E+03
  0.1928063E+03
  0.1928063E+03
  0.1928063E+03
  0.1928063E+03
  0.1928063E+03
  0.1928063E+03
  0.1928063E+03
  0.1928063E+03
  0.1928063E+03
  0.1928063E+03
  0.1928063E+03
  0.1928063E+03
  0.1928063E+03
  0.1928063E+03
  0.1928063E+03
  0.1928063E+03
  0.1928063E+03
  0.1928063E+03
  0.1928063E+03
  0.1928063E+03
  0.1928063E+03
  0.1928063E+03
  0.1928063E+03
  0.1928063E+03
  0.1928063E+03
  0.1928063E+03
  0.1928063E+03
  0.1928063E+03
  0.1928063E+03
  0.1928063E+03
  0.1928063E+03
  0.1928063E+03
  0.1928063E+03
  0.1928063E+03
  0.1928063E+03
  0.1928063E+03
  0.1928063E+03
  0.1928063E+03
  0.1928063E+03
  0.1928063E+03
  0.1928063E+03
  0.1928063E+03
  0.1928063E+03
  0.1928063E+03
  0.1928063E+03
  0.1928063E+03
  0.1928063E+03
  0.1928063E+03
  0.1928063E+03
  0.1928063E+03
  0.1928063E+03
  0.1928063E+03
  0.1928063E+03
  0.1928063E+03
  0.1928063E+03
  0.1928063E+03
  0.1928063E+03
  0.1928063E+03
  0.1928063E+03
  0.1928063E+03
  0.1928063E+03
  0.1928063E+03
  0.1928063E+03
  0.1928063E+03
  0.1928063E+03
  0.1928063E+03
  0.1928063E+03
  0.1928063E+03
  0.1928063E+03
  0.1928063E+03
  0.1928063E+03
  0.1928063E+03
  0.1928063E+03
  0.1928063E+03
  0.1928063E+03
  0.1928063E+03
  0.1928063E+03
  0.1928063E+03
  0.1928063E+03
  0.1928063E+03
  0.1928063E+03
  0.1928063E+03
  0.1928063E+03
  0.1928063E+03
  0.1928063E+03
  0.1928063E+03
  0.1928063E+03
  0.1928063E+03
  0.1928063E+03
  0.1928063E+03
  0.1928063E+03
  0.1928063E+03
  0.1928063E+03
  0.1928063E+03
  0.1928063E+03
  0.1928063E+03
  0.1928063E+03
  0.1928063E+03
  0.1928063E+03
  0.1928063E+03
  0.1928063E+03
  0.1928063E+03
  0.1928063E+03
  0.1928063E+03
  0.1928063E+03
  0.1928063E+03
  0.1928063E+03
  0.1928063E+03
  0.1928063E+03
  0.1928063E+03
  0.1928063E+03
  0.1928063E+03
  0.1928063E+03
  0.1928063E+03
  0.1928063E+03
  0.1928063E+03
  0.1928063E+03
  0.1928063E+03
  0.1928063E+03
  0.1928063E+03
  0.1928063E+03
  0.1928063E+03
  0.1928063E+03
  0.1928063E+03
  0.1928063E+03
  0.1928063E+03
  0.1928063E+03
  0.1928063E+03
  0.1928063E+03
  0.1928063E+03
  0.1928063E+03
  0.1928063E+03
  0.1928063E+03
  0.1928063E+03
  0.1928063E+03
  0.1928063E+03
  0.1928063E+03
  0.1928063E+03
  0.1928063E+03
  0.1928063E+03
  0.1928063E+03
  0.1928063E+03
  0.1928063E+03
  0.1928063E+03
  0.1928063E+03
  0.1928063E+03
  0.1928063E+03
  0.1928063E+03
  0.1928063E+03
  0.1928063E+03
  0.1928063E+03
  0.1928063E+03
  0.1928063E+03
  0.1928063E+03
  0.1928063E+03
  0.1928063E+03
  0.1928063E+03
  0.1928063E+03
  0.1928063E+03
  0.1928063E+03
  0.1928063E+03
  0.1928063E+03
  0.1928063E+03
  0.1928063E+03
  0.1928063E+03
  0.1928063E+03
  0.1928063E+03
  0.1928063E+03
  0.1928063E+03
  0.1928063E+03
  0.1928063E+03
  0.1928063E+03
  0.1928063E+03
  0.1928063E+03
  0.1928063E+03
  0.1928063E+03
  0.1928063E+03
  0.1928063E+03
  0.1928063E+03
  0.1928063E+03
  0.1928063E+03
  0.1928063E+03
  0.1928063E+03
  0.1928063E+03
  0.1928063E+03
  0.1928063E+03
  0.1928063E+03
  0.1928063E+03
  0.1928063E+03
  0.1928063E+03
  0.1928063E+03
  0.1928063E+03
  0.1928063E+03
  0.1928063E+03
  0.1928063E+03
  0.1928063E+03
  0.1928063E+03
  0.1928063E+03
  0.1928063E+03
  0.1928063E+03
  0.1928063E+03
  0.1928063E+03
  0.1928063E+03
  0.1928063E+03
  0.1928063E+03
  0.1928063E+03
  0.1928063E+03
  0.1928063E+03
  0.1928063E+03
  0.1928063E+03
  0.1928063E+03
  0.1928063E+03
  0.1928063E+03
  0.1928063E+03
  0.1928063E+03
  0.1928063E+03
  0.1928063E+03
  0.1928063E+03
  0.1928063E+03
  0.1928063E+03
  0.1928063E+03
  0.1928063E+03
  0.1928063E+03
  0.1928063E+03
  0.1928063E+03
  0.1928063E+03
  0.1928063E+03
  0.1928063E+03
  0.1928063E+03
  0.1928063E+03
  0.1928063E+03
  0.1928063E+03
  0.1928063E+03
  0.1928063E+03
  0.1928063E+03
  0.1928063E+03
  0.1928063E+03
  0.1928063E+03
  0.1928063E+03
  0.1928063E+03
  0.5114961E+04