 TITLE = "VectorSurfaceData"
VARIABLES = "x" "y" "z"
  "FullConvective"
  "FourierOnly"
  "Radiant"
  "Balance"
 ZONE T=Bnd4 DATAPACKING=Block
 N=356
 E=264
 ZONETYPE=FEQUADRILATERAL
 VarLocation=([4-7]=CellCentered)
 -0.1000000E+01
 -0.9994853E+00
 -0.1000000E+01
 -0.9994834E+00
 -0.1000000E+01
 -0.9994834E+00
 -0.1000000E+01
 -0.9994860E+00
 -0.9979451E+00
 -0.9979414E+00
 -0.9979414E+00
 -0.9979452E+00
 -0.9953786E+00
 -0.9953778E+00
 -0.9953778E+00
 -0.9953790E+00
 -0.9917892E+00
 -0.9917862E+00
 -0.9917862E+00
 -0.9917896E+00
 -0.9871809E+00
 -0.9871798E+00
 -0.9871798E+00
 -0.9871815E+00
 -0.9815586E+00
 -0.9815550E+00
 -0.9815550E+00
 -0.9815591E+00
 -0.9749277E+00
 -0.9749275E+00
 -0.9749275E+00
 -0.9749278E+00
 -0.9672939E+00
 -0.9672911E+00
 -0.9672911E+00
 -0.9672946E+00
 -0.9586671E+00
 -0.9586636E+00
 -0.9586636E+00
 -0.9586675E+00
 -0.9490548E+00
 -0.9490536E+00
 -0.9490536E+00
 -0.9490556E+00
 -0.9384679E+00
 -0.9384673E+00
 -0.9384673E+00
 -0.9384682E+00
 -0.9269156E+00
 -0.9269134E+00
 -0.9269134E+00
 -0.9269164E+00
 -0.9144118E+00
 -0.9144084E+00
 -0.9144084E+00
 -0.9144123E+00
 -0.9009688E+00
 -0.9009644E+00
 -0.9009644E+00
 -0.9009686E+00
 -0.8865987E+00
 -0.8865950E+00
 -0.8865950E+00
 -0.8865986E+00
 -0.8713178E+00
 -0.8713146E+00
 -0.8713147E+00
 -0.8713185E+00
 -0.8551418E+00
 -0.8551390E+00
 -0.8551390E+00
 -0.8551422E+00
 -0.8380879E+00
 -0.8380844E+00
 -0.8380844E+00
 -0.8380877E+00
 -0.8201720E+00
 -0.8201686E+00
 -0.8201686E+00
 -0.8201717E+00
 -0.8014134E+00
 -0.8014100E+00
 -0.8014100E+00
 -0.8014132E+00
 -0.7818312E+00
 -0.7818277E+00
 -0.7818277E+00
 -0.7818308E+00
 -0.7614457E+00
 -0.7614422E+00
 -0.7614422E+00
 -0.7614459E+00
 -0.7402778E+00
 -0.7402742E+00
 -0.7402742E+00
 -0.7402774E+00
 -0.7183493E+00
 -0.7183456E+00
 -0.7183456E+00
 -0.7183490E+00
 -0.6956825E+00
 -0.6956789E+00
 -0.6956789E+00
 -0.6956822E+00
 -0.6723008E+00
 -0.6722974E+00
 -0.6722974E+00
 -0.6723003E+00
 -0.6482282E+00
 -0.6482252E+00
 -0.6482252E+00
 -0.6482283E+00
 -0.6234896E+00
 -0.6234869E+00
 -0.6234868E+00
 -0.6234893E+00
 -0.5981104E+00
 -0.5981078E+00
 -0.5981078E+00
 -0.5981102E+00
 -0.5721166E+00
 -0.5721142E+00
 -0.5721142E+00
 -0.5721163E+00
 -0.5455348E+00
 -0.5455325E+00
 -0.5455325E+00
 -0.5455346E+00
 -0.5183920E+00
 -0.5183903E+00
 -0.5183902E+00
 -0.5183921E+00
 -0.4907171E+00
 -0.4907153E+00
 -0.4907153E+00
 -0.4907174E+00
 -0.4625380E+00
 -0.4625360E+00
 -0.4625360E+00
 -0.4625379E+00
 -0.4338838E+00
 -0.4338816E+00
 -0.4338816E+00
 -0.4338835E+00
 -0.4047830E+00
 -0.4047815E+00
 -0.4047815E+00
 -0.4047831E+00
 -0.3752666E+00
 -0.3752657E+00
 -0.3752656E+00
 -0.3752668E+00
 -0.3453649E+00
 -0.3453646E+00
 -0.3453646E+00
 -0.3453649E+00
 -0.3151079E+00
 -0.3151075E+00
 -0.3151075E+00
 -0.3151081E+00
 -0.2845274E+00
 -0.2845263E+00
 -0.2845263E+00
 -0.2845274E+00
 -0.2536543E+00
 -0.2536536E+00
 -0.2536536E+00
 -0.2536544E+00
 -0.2225209E+00
 -0.2225208E+00
 -0.2225208E+00
 -0.2225209E+00
 -0.1911585E+00
 -0.1911578E+00
 -0.1911578E+00
 -0.1911586E+00
 -0.1595998E+00
 -0.1595996E+00
 -0.1595996E+00
 -0.1595998E+00
 -0.1278771E+00
 -0.1278767E+00
 -0.1278767E+00
 -0.1278771E+00
 -0.9602296E-01
 -0.9602289E-01
 -0.9602289E-01
 -0.9602299E-01
 -0.6407019E-01
 -0.6406996E-01
 -0.6406996E-01
 -0.6407019E-01
 -0.3205154E-01
 -0.3205148E-01
 -0.3205148E-01
 -0.3205156E-01
  0.0000000E+00
  0.0000000E+00
  0.8881784E-15
  0.0000000E+00
  0.2886150E-01
  0.2886150E-01
  0.2886150E-01
  0.2886150E-01
  0.6261033E-01
  0.6261033E-01
  0.6261033E-01
  0.6261033E-01
  0.1020712E+00
  0.1020712E+00
  0.1020712E+00
  0.1020712E+00
  0.1482067E+00
  0.1482067E+00
  0.1482067E+00
  0.1482067E+00
  0.2021406E+00
  0.2021406E+00
  0.2021406E+00
  0.2021406E+00
  0.2651834E+00
  0.2651834E+00
  0.2651834E+00
  0.2651834E+00
  0.3388632E+00
  0.3388632E+00
  0.3388632E+00
  0.3388632E+00
  0.4249609E+00
  0.4249609E+00
  0.4249609E+00
  0.4249609E+00
  0.5255501E+00
  0.5255501E+00
  0.5255501E+00
  0.5255501E+00
  0.6430441E+00
  0.6430441E+00
  0.6430441E+00
  0.6430441E+00
  0.7802481E+00
  0.7802481E+00
  0.7802481E+00
  0.7802481E+00
  0.9404202E+00
  0.9404202E+00
  0.9404202E+00
  0.9404202E+00
  0.1127339E+01
  0.1127339E+01
  0.1127339E+01
  0.1127339E+01
  0.1345381E+01
  0.1345381E+01
  0.1345381E+01
  0.1345381E+01
  0.1599607E+01
  0.1599607E+01
  0.1599607E+01
  0.1599607E+01
  0.1895853E+01
  0.1895853E+01
  0.1895853E+01
  0.1895853E+01
  0.2240842E+01
  0.2240842E+01
  0.2240842E+01
  0.2240842E+01
  0.2642286E+01
  0.2642286E+01
  0.2642286E+01
  0.2642286E+01
  0.3109011E+01
  0.3109011E+01
  0.3109011E+01
  0.3109011E+01
  0.3651075E+01
  0.3651075E+01
  0.3651075E+01
  0.3651075E+01
  0.4279886E+01
  0.4279886E+01
  0.4279886E+01
  0.4279886E+01
  0.5008316E+01
  0.5008316E+01
  0.5008316E+01
  0.5008316E+01
  0.5850793E+01
  0.5850793E+01
  0.5850793E+01
  0.5850793E+01
  0.6823364E+01
  0.6823364E+01
  0.6823364E+01
  0.6823364E+01
  0.7943715E+01
  0.7943715E+01
  0.7943715E+01
  0.7943715E+01
  0.9231117E+01
  0.9231117E+01
  0.9231117E+01
  0.9231117E+01
  0.1070629E+02
  0.1070629E+02
  0.1070629E+02
  0.1070629E+02
  0.1239113E+02
  0.1239113E+02
  0.1239113E+02
  0.1239113E+02
  0.1430832E+02
  0.1430832E+02
  0.1430832E+02
  0.1430832E+02
  0.1648070E+02
  0.1648070E+02
  0.1648070E+02
  0.1648070E+02
  0.1893051E+02
  0.1893051E+02
  0.1893051E+02
  0.1893051E+02
  0.2167831E+02
  0.2167831E+02
  0.2167831E+02
  0.2167831E+02
  0.2474178E+02
  0.2474178E+02
  0.2474178E+02
  0.2474178E+02
  0.2813426E+02
  0.2813426E+02
  0.2813426E+02
  0.2813426E+02
  0.3186315E+02
  0.3186315E+02
  0.3186315E+02
  0.3186315E+02
  0.3592838E+02
  0.3592838E+02
  0.3592838E+02
  0.3592838E+02
  0.4032088E+02
  0.4032088E+02
  0.4032088E+02
  0.4032088E+02
  0.4502143E+02
  0.4502143E+02
  0.4502143E+02
  0.4502143E+02
  0.5000000E+02
  0.5000000E+02
  0.5000000E+02
  0.5000000E+02
  0.0000000E+00
  0.3205154E-01
  0.0000000E+00
  0.3205148E-01
  0.0000000E+00
  0.3205148E-01
  0.0000000E+00
  0.3205156E-01
  0.6407019E-01
  0.6406996E-01
  0.6406996E-01
  0.6407019E-01
  0.9602296E-01
  0.9602289E-01
  0.9602289E-01
  0.9602299E-01
  0.1278771E+00
  0.1278767E+00
  0.1278767E+00
  0.1278771E+00
  0.1595998E+00
  0.1595996E+00
  0.1595996E+00
  0.1595998E+00
  0.1911585E+00
  0.1911578E+00
  0.1911578E+00
  0.1911586E+00
  0.2225209E+00
  0.2225208E+00
  0.2225208E+00
  0.2225209E+00
  0.2536543E+00
  0.2536536E+00
  0.2536536E+00
  0.2536544E+00
  0.2845274E+00
  0.2845263E+00
  0.2845263E+00
  0.2845274E+00
  0.3151079E+00
  0.3151075E+00
  0.3151075E+00
  0.3151081E+00
  0.3453649E+00
  0.3453646E+00
  0.3453646E+00
  0.3453649E+00
  0.3752666E+00
  0.3752657E+00
  0.3752656E+00
  0.3752668E+00
  0.4047830E+00
  0.4047815E+00
  0.4047815E+00
  0.4047831E+00
  0.4338838E+00
  0.4338816E+00
  0.4338816E+00
  0.4338835E+00
  0.4625380E+00
  0.4625360E+00
  0.4625360E+00
  0.4625379E+00
  0.4907171E+00
  0.4907153E+00
  0.4907153E+00
  0.4907174E+00
  0.5183920E+00
  0.5183903E+00
  0.5183902E+00
  0.5183921E+00
  0.5455348E+00
  0.5455325E+00
  0.5455325E+00
  0.5455346E+00
  0.5721166E+00
  0.5721142E+00
  0.5721142E+00
  0.5721163E+00
  0.5981104E+00
  0.5981078E+00
  0.5981078E+00
  0.5981102E+00
  0.6234896E+00
  0.6234869E+00
  0.6234868E+00
  0.6234893E+00
  0.6482282E+00
  0.6482252E+00
  0.6482252E+00
  0.6482283E+00
  0.6723008E+00
  0.6722974E+00
  0.6722974E+00
  0.6723003E+00
  0.6956825E+00
  0.6956789E+00
  0.6956789E+00
  0.6956822E+00
  0.7183493E+00
  0.7183456E+00
  0.7183456E+00
  0.7183490E+00
  0.7402778E+00
  0.7402742E+00
  0.7402742E+00
  0.7402774E+00
  0.7614457E+00
  0.7614422E+00
  0.7614422E+00
  0.7614459E+00
  0.7818312E+00
  0.7818277E+00
  0.7818277E+00
  0.7818308E+00
  0.8014134E+00
  0.8014100E+00
  0.8014100E+00
  0.8014132E+00
  0.8201720E+00
  0.8201686E+00
  0.8201686E+00
  0.8201717E+00
  0.8380879E+00
  0.8380844E+00
  0.8380844E+00
  0.8380877E+00
  0.8551418E+00
  0.8551390E+00
  0.8551390E+00
  0.8551422E+00
  0.8713178E+00
  0.8713146E+00
  0.8713147E+00
  0.8713185E+00
  0.8865987E+00
  0.8865950E+00
  0.8865950E+00
  0.8865986E+00
  0.9009688E+00
  0.9009644E+00
  0.9009644E+00
  0.9009686E+00
  0.9144118E+00
  0.9144084E+00
  0.9144084E+00
  0.9144123E+00
  0.9269156E+00
  0.9269134E+00
  0.9269134E+00
  0.9269164E+00
  0.9384679E+00
  0.9384673E+00
  0.9384673E+00
  0.9384682E+00
  0.9490548E+00
  0.9490536E+00
  0.9490536E+00
  0.9490556E+00
  0.9586671E+00
  0.9586636E+00
  0.9586636E+00
  0.9586675E+00
  0.9672939E+00
  0.9672911E+00
  0.9672911E+00
  0.9672946E+00
  0.9749277E+00
  0.9749275E+00
  0.9749275E+00
  0.9749278E+00
  0.9815586E+00
  0.9815550E+00
  0.9815550E+00
  0.9815591E+00
  0.9871809E+00
  0.9871798E+00
  0.9871798E+00
  0.9871815E+00
  0.9917892E+00
  0.9917862E+00
  0.9917862E+00
  0.9917896E+00
  0.9953786E+00
  0.9953778E+00
  0.9953778E+00
  0.9953790E+00
  0.9979451E+00
  0.9979414E+00
  0.9979414E+00
  0.9979452E+00
  0.9994853E+00
  0.9994834E+00
  0.9994834E+00
  0.9994860E+00
  0.1000000E+01
  0.1000000E+01
  0.1000000E+01
  0.1000000E+01
  0.1000000E+01
  0.1000000E+01
  0.1000000E+01
  0.1000000E+01
  0.1000000E+01
  0.1000000E+01
  0.1000000E+01
  0.1000000E+01
  0.1000000E+01
  0.1000000E+01
  0.1000000E+01
  0.1000000E+01
  0.1000000E+01
  0.1000000E+01
  0.1000000E+01
  0.1000000E+01
  0.1000000E+01
  0.1000000E+01
  0.1000000E+01
  0.1000000E+01
  0.1000000E+01
  0.1000000E+01
  0.1000000E+01
  0.1000000E+01
  0.1000000E+01
  0.1000000E+01
  0.1000000E+01
  0.1000000E+01
  0.1000000E+01
  0.1000000E+01
  0.1000000E+01
  0.1000000E+01
  0.1000000E+01
  0.1000000E+01
  0.1000000E+01
  0.1000000E+01
  0.1000000E+01
  0.1000000E+01
  0.1000000E+01
  0.1000000E+01
  0.1000000E+01
  0.1000000E+01
  0.1000000E+01
  0.1000000E+01
  0.1000000E+01
  0.1000000E+01
  0.1000000E+01
  0.1000000E+01
  0.1000000E+01
  0.1000000E+01
  0.1000000E+01
  0.1000000E+01
  0.1000000E+01
  0.1000000E+01
  0.1000000E+01
  0.1000000E+01
  0.1000000E+01
  0.1000000E+01
  0.1000000E+01
  0.1000000E+01
  0.1000000E+01
  0.1000000E+01
  0.1000000E+01
  0.1000000E+01
  0.1000000E+01
  0.1000000E+01
  0.1000000E+01
  0.1000000E+01
  0.1000000E+01
  0.1000000E+01
  0.1000000E+01
  0.1000000E+01
  0.1000000E+01
  0.1000000E+01
  0.1000000E+01
  0.1000000E+01
  0.1000000E+01
  0.1000000E+01
  0.1000000E+01
  0.1000000E+01
  0.1000000E+01
  0.1000000E+01
  0.1000000E+01
  0.1000000E+01
  0.1000000E+01
  0.1000000E+01
  0.1000000E+01
  0.1000000E+01
  0.1000000E+01
  0.1000000E+01
  0.1000000E+01
  0.1000000E+01
  0.1000000E+01
  0.1000000E+01
  0.1000000E+01
  0.1000000E+01
  0.1000000E+01
  0.1000000E+01
  0.1000000E+01
  0.1000000E+01
  0.1000000E+01
  0.1000000E+01
  0.1000000E+01
  0.1000000E+01
  0.1000000E+01
  0.1000000E+01
  0.1000000E+01
  0.1000000E+01
  0.1000000E+01
  0.1000000E+01
  0.1000000E+01
  0.1000000E+01
  0.1000000E+01
  0.1000000E+01
  0.1000000E+01
  0.1000000E+01
  0.1000000E+01
  0.1000000E+01
  0.1000000E+01
  0.1000000E+01
  0.1000000E+01
  0.1000000E+01
  0.1000000E+01
  0.1000000E+01
  0.1000000E+01
  0.1000000E+01
  0.1000000E+01
  0.1000000E+01
  0.1000000E+01
  0.1000000E+01
  0.1000000E+01
  0.1000000E+01
  0.1000000E+01
  0.1000000E+01
  0.1000000E+01
  0.1000000E+01
  0.1000000E+01
  0.1000000E+01
  0.1000000E+01
  0.1000000E+01
  0.1000000E+01
  0.1000000E+01
  0.1000000E+01
  0.1000000E+01
  0.1000000E+01
  0.1000000E+01
  0.1000000E+01
  0.1000000E+01
  0.1000000E+01
  0.1000000E+01
  0.1000000E+01
  0.1000000E+01
  0.1000000E+01
  0.1000000E+01
  0.1000000E+01
  0.1000000E+01
  0.0000000E+00
  0.0000000E+00
  0.1000000E-01
  0.1000000E-01
  0.2000000E-01
  0.2000000E-01
  0.3000000E-01
  0.3000000E-01
  0.0000000E+00
  0.1000000E-01
  0.2000000E-01
  0.3000000E-01
  0.0000000E+00
  0.1000000E-01
  0.2000000E-01
  0.3000000E-01
  0.0000000E+00
  0.1000000E-01
  0.2000000E-01
  0.3000000E-01
  0.0000000E+00
  0.1000000E-01
  0.2000000E-01
  0.3000000E-01
  0.0000000E+00
  0.1000000E-01
  0.2000000E-01
  0.3000000E-01
  0.0000000E+00
  0.1000000E-01
  0.2000000E-01
  0.3000000E-01
  0.0000000E+00
  0.1000000E-01
  0.2000000E-01
  0.3000000E-01
  0.0000000E+00
  0.1000000E-01
  0.2000000E-01
  0.3000000E-01
  0.0000000E+00
  0.1000000E-01
  0.2000000E-01
  0.3000000E-01
  0.0000000E+00
  0.1000000E-01
  0.2000000E-01
  0.3000000E-01
  0.0000000E+00
  0.1000000E-01
  0.2000000E-01
  0.3000000E-01
  0.0000000E+00
  0.1000000E-01
  0.2000000E-01
  0.3000000E-01
  0.0000000E+00
  0.1000000E-01
  0.2000000E-01
  0.3000000E-01
  0.0000000E+00
  0.1000000E-01
  0.2000000E-01
  0.3000000E-01
  0.0000000E+00
  0.1000000E-01
  0.2000000E-01
  0.3000000E-01
  0.0000000E+00
  0.1000000E-01
  0.2000000E-01
  0.3000000E-01
  0.0000000E+00
  0.1000000E-01
  0.2000000E-01
  0.3000000E-01
  0.0000000E+00
  0.1000000E-01
  0.2000000E-01
  0.3000000E-01
  0.0000000E+00
  0.1000000E-01
  0.2000000E-01
  0.3000000E-01
  0.0000000E+00
  0.1000000E-01
  0.2000000E-01
  0.3000000E-01
  0.0000000E+00
  0.1000000E-01
  0.2000000E-01
  0.3000000E-01
  0.0000000E+00
  0.1000000E-01
  0.2000000E-01
  0.3000000E-01
  0.0000000E+00
  0.1000000E-01
  0.2000000E-01
  0.3000000E-01
  0.0000000E+00
  0.1000000E-01
  0.2000000E-01
  0.3000000E-01
  0.0000000E+00
  0.1000000E-01
  0.2000000E-01
  0.3000000E-01
  0.0000000E+00
  0.1000000E-01
  0.2000000E-01
  0.3000000E-01
  0.0000000E+00
  0.1000000E-01
  0.2000000E-01
  0.3000000E-01
  0.0000000E+00
  0.1000000E-01
  0.2000000E-01
  0.3000000E-01
  0.0000000E+00
  0.1000000E-01
  0.2000000E-01
  0.3000000E-01
  0.0000000E+00
  0.1000000E-01
  0.2000000E-01
  0.3000000E-01
  0.0000000E+00
  0.1000000E-01
  0.2000000E-01
  0.3000000E-01
  0.0000000E+00
  0.1000000E-01
  0.2000000E-01
  0.3000000E-01
  0.0000000E+00
  0.1000000E-01
  0.2000000E-01
  0.3000000E-01
  0.0000000E+00
  0.1000000E-01
  0.2000000E-01
  0.3000000E-01
  0.0000000E+00
  0.1000000E-01
  0.2000000E-01
  0.3000000E-01
  0.0000000E+00
  0.1000000E-01
  0.2000000E-01
  0.3000000E-01
  0.0000000E+00
  0.1000000E-01
  0.2000000E-01
  0.3000000E-01
  0.0000000E+00
  0.1000000E-01
  0.2000000E-01
  0.3000000E-01
  0.0000000E+00
  0.1000000E-01
  0.2000000E-01
  0.3000000E-01
  0.0000000E+00
  0.1000000E-01
  0.2000000E-01
  0.3000000E-01
  0.0000000E+00
  0.1000000E-01
  0.2000000E-01
  0.3000000E-01
  0.0000000E+00
  0.1000000E-01
  0.2000000E-01
  0.3000000E-01
  0.0000000E+00
  0.1000000E-01
  0.2000000E-01
  0.3000000E-01
  0.0000000E+00
  0.1000000E-01
  0.2000000E-01
  0.3000000E-01
  0.0000000E+00
  0.1000000E-01
  0.2000000E-01
  0.3000000E-01
  0.0000000E+00
  0.1000000E-01
  0.2000000E-01
  0.3000000E-01
  0.0000000E+00
  0.1000000E-01
  0.2000000E-01
  0.3000000E-01
  0.0000000E+00
  0.1000000E-01
  0.2000000E-01
  0.3000000E-01
  0.0000000E+00
  0.1000000E-01
  0.2000000E-01
  0.3000000E-01
  0.0000000E+00
  0.1000000E-01
  0.2000000E-01
  0.3000000E-01
  0.0000000E+00
  0.1000000E-01
  0.2000000E-01
  0.3000000E-01
  0.0000000E+00
  0.1000000E-01
  0.2000000E-01
  0.3000000E-01
  0.0000000E+00
  0.1000000E-01
  0.2000000E-01
  0.3000000E-01
  0.0000000E+00
  0.1000000E-01
  0.2000000E-01
  0.3000000E-01
  0.0000000E+00
  0.1000000E-01
  0.2000000E-01
  0.3000000E-01
  0.0000000E+00
  0.1000000E-01
  0.2000000E-01
  0.3000000E-01
  0.0000000E+00
  0.1000000E-01
  0.2000000E-01
  0.3000000E-01
  0.0000000E+00
  0.1000000E-01
  0.2000000E-01
  0.3000000E-01
  0.0000000E+00
  0.1000000E-01
  0.2000000E-01
  0.3000000E-01
  0.0000000E+00
  0.1000000E-01
  0.2000000E-01
  0.3000000E-01
  0.0000000E+00
  0.1000000E-01
  0.2000000E-01
  0.3000000E-01
  0.0000000E+00
  0.1000000E-01
  0.2000000E-01
  0.3000000E-01
  0.0000000E+00
  0.1000000E-01
  0.2000000E-01
  0.3000000E-01
  0.0000000E+00
  0.1000000E-01
  0.2000000E-01
  0.3000000E-01
  0.0000000E+00
  0.1000000E-01
  0.2000000E-01
  0.3000000E-01
  0.0000000E+00
  0.1000000E-01
  0.2000000E-01
  0.3000000E-01
  0.0000000E+00
  0.1000000E-01
  0.2000000E-01
  0.3000000E-01
  0.0000000E+00
  0.1000000E-01
  0.2000000E-01
  0.3000000E-01
  0.0000000E+00
  0.1000000E-01
  0.2000000E-01
  0.3000000E-01
  0.0000000E+00
  0.1000000E-01
  0.2000000E-01
  0.3000000E-01
  0.0000000E+00
  0.1000000E-01
  0.2000000E-01
  0.3000000E-01
  0.0000000E+00
  0.1000000E-01
  0.2000000E-01
  0.3000000E-01
  0.0000000E+00
  0.1000000E-01
  0.2000000E-01
  0.3000000E-01
  0.0000000E+00
  0.1000000E-01
  0.2000000E-01
  0.3000000E-01
  0.0000000E+00
  0.1000000E-01
  0.2000000E-01
  0.3000000E-01
  0.0000000E+00
  0.1000000E-01
  0.2000000E-01
  0.3000000E-01
  0.0000000E+00
  0.1000000E-01
  0.2000000E-01
  0.3000000E-01
  0.0000000E+00
  0.1000000E-01
  0.2000000E-01
  0.3000000E-01
  0.0000000E+00
  0.1000000E-01
  0.2000000E-01
  0.3000000E-01
  0.0000000E+00
  0.1000000E-01
  0.2000000E-01
  0.3000000E-01
  0.0000000E+00
  0.1000000E-01
  0.2000000E-01
  0.3000000E-01
  0.0000000E+00
  0.1000000E-01
  0.2000000E-01
  0.3000000E-01
  0.0000000E+00
  0.1000000E-01
  0.2000000E-01
  0.3000000E-01
  0.0000000E+00
  0.1000000E-01
  0.2000000E-01
  0.3000000E-01
  0.0000000E+00
  0.1000000E-01
  0.2000000E-01
  0.3000000E-01
  0.0000000E+00
  0.1000000E-01
  0.2000000E-01
  0.3000000E-01
  0.0000000E+00
  0.1000000E-01
  0.2000000E-01
  0.3000000E-01
  0.5307881E+04
  0.5307575E+04
  0.5307938E+04
  0.5341652E+04
  0.5341352E+04
  0.5341742E+04
  0.5345292E+04
  0.5345106E+04
  0.5345466E+04
  0.5346387E+04
  0.5346116E+04
  0.5346506E+04
  0.5333747E+04
  0.5333185E+04
  0.5333598E+04
  0.5308325E+04
  0.5307498E+04
  0.5308047E+04
  0.5272376E+04
  0.5272795E+04
  0.5272302E+04
  0.5225682E+04
  0.5225126E+04
  0.5225978E+04
  0.5172491E+04
  0.5172033E+04
  0.5172810E+04
  0.5111198E+04
  0.5111188E+04
  0.5111165E+04
  0.5043200E+04
  0.5043099E+04
  0.5043046E+04
  0.4968536E+04
  0.4967552E+04
  0.4968239E+04
  0.4888382E+04
  0.4887635E+04
  0.4888042E+04
  0.4801707E+04
  0.4801431E+04
  0.4802098E+04
  0.4710925E+04
  0.4710219E+04
  0.4710381E+04
  0.4614383E+04
  0.4614284E+04
  0.4614809E+04
  0.4513012E+04
  0.4512895E+04
  0.4513286E+04
  0.4408829E+04
  0.4407766E+04
  0.4407978E+04
  0.4299293E+04
  0.4298817E+04
  0.4299026E+04
  0.4185824E+04
  0.4185583E+04
  0.4186084E+04
  0.4069834E+04
  0.4069315E+04
  0.4069756E+04
  0.3949015E+04
  0.3948337E+04
  0.3949004E+04
  0.3825565E+04
  0.3825074E+04
  0.3825284E+04
  0.3700674E+04
  0.3700044E+04
  0.3700621E+04
  0.3573325E+04
  0.3572655E+04
  0.3573085E+04
  0.3443145E+04
  0.3442681E+04
  0.3443127E+04
  0.3317813E+04
  0.3317398E+04
  0.3317939E+04
  0.3193044E+04
  0.3192432E+04
  0.3192504E+04
  0.3059648E+04
  0.3059102E+04
  0.3059954E+04
  0.2929575E+04
  0.2929103E+04
  0.2929381E+04
  0.2800775E+04
  0.2800243E+04
  0.2800833E+04
  0.2670966E+04
  0.2670689E+04
  0.2670922E+04
  0.2541620E+04
  0.2541023E+04
  0.2541643E+04
  0.2416210E+04
  0.2415459E+04
  0.2415887E+04
  0.2290342E+04
  0.2289260E+04
  0.2289782E+04
  0.2165982E+04
  0.2165778E+04
  0.2166521E+04
  0.2043118E+04
  0.2043055E+04
  0.2043121E+04
  0.1927783E+04
  0.1928247E+04
  0.1927585E+04
  0.1807358E+04
  0.1806701E+04
  0.1807488E+04
  0.1695053E+04
  0.1693792E+04
  0.1694729E+04
  0.1577354E+04
  0.1576857E+04
  0.1577540E+04
  0.1478885E+04
  0.1478767E+04
  0.1478639E+04
  0.1361368E+04
  0.1361601E+04
  0.1361438E+04
  0.1272211E+04
  0.1271735E+04
  0.1272091E+04
  0.1157460E+04
  0.1157436E+04
  0.1157508E+04
  0.1088935E+04
  0.1088798E+04
  0.1088875E+04
  0.9630995E+03
  0.9618311E+03
  0.9631276E+03
  0.9421961E+03
  0.9423125E+03
  0.9421475E+03
  0.6908512E+03
  0.6905511E+03
  0.6908674E+03
  0.8026731E+03
  0.8025252E+03
  0.8027823E+03
  0.7479413E+03
  0.7477214E+03
  0.7479849E+03
  0.7322105E+03
  0.7319609E+03
  0.7322410E+03
  0.7281885E+03
  0.7279215E+03
  0.7282082E+03
  0.7245499E+03
  0.7242708E+03
  0.7245628E+03
  0.7200357E+03
  0.7197535E+03
  0.7200447E+03
  0.7155151E+03
  0.7152354E+03
  0.7155212E+03
  0.7111860E+03
  0.7109072E+03
  0.7111879E+03
  0.7070069E+03
  0.7067220E+03
  0.7070013E+03
  0.7035806E+03
  0.7032884E+03
  0.7035649E+03
  0.7014845E+03
  0.7012047E+03
  0.7014627E+03
  0.6994244E+03
  0.6992007E+03
  0.6994103E+03
  0.6949829E+03
  0.6948574E+03
  0.6949966E+03
  0.6868735E+03
  0.6868249E+03
  0.6869169E+03
  0.6777033E+03
  0.6776169E+03
  0.6777549E+03
  0.6709464E+03
  0.6706087E+03
  0.6709439E+03
  0.6694301E+03
  0.6686210E+03
  0.6693000E+03
  0.6643593E+03
  0.6627932E+03
  0.6639986E+03
  0.6587842E+03
  0.6564243E+03
  0.6581551E+03
  0.6495246E+03
  0.6462864E+03
  0.6485655E+03
  0.6348331E+03
  0.6304425E+03
  0.6334327E+03
  0.6220833E+03
  0.6165578E+03
  0.6202455E+03
  0.6012475E+03
  0.5943327E+03
  0.5988486E+03
  0.5850875E+03
  0.5766248E+03
  0.5820237E+03
  0.5628933E+03
  0.5528438E+03
  0.5591927E+03
  0.5445246E+03
  0.5330602E+03
  0.5402620E+03
  0.5272786E+03
  0.5146168E+03
  0.5226537E+03
  0.5115951E+03
  0.4976792E+03
  0.5065577E+03
  0.4939305E+03
  0.4792584E+03
  0.4888471E+03
  0.4784356E+03
  0.4630216E+03
  0.4734005E+03
  0.4680227E+03
  0.4518222E+03
  0.4631007E+03
  0.4556228E+03
  0.4386563E+03
  0.4509495E+03
  0.4457056E+03
  0.4281151E+03
  0.4414042E+03
  0.4309834E+03
  0.4133699E+03
  0.4271688E+03
  0.4185733E+03
  0.4009273E+03
  0.4152833E+03
  0.4085150E+03
  0.3907285E+03
  0.4058197E+03
  0.4009893E+03
  0.3829849E+03
  0.3987644E+03
  0.3965981E+03
  0.3781827E+03
  0.3948641E+03
  0.3939856E+03
  0.3751075E+03
  0.3926909E+03
  0.5307881E+04
  0.5307575E+04
  0.5307938E+04
  0.5341652E+04
  0.5341352E+04
  0.5341742E+04
  0.5345292E+04
  0.5345106E+04
  0.5345466E+04
  0.5346387E+04
  0.5346116E+04
  0.5346506E+04
  0.5333747E+04
  0.5333185E+04
  0.5333598E+04
  0.5308325E+04
  0.5307498E+04
  0.5308047E+04
  0.5272376E+04
  0.5272795E+04
  0.5272302E+04
  0.5225682E+04
  0.5225126E+04
  0.5225978E+04
  0.5172491E+04
  0.5172033E+04
  0.5172810E+04
  0.5111198E+04
  0.5111188E+04
  0.5111165E+04
  0.5043200E+04
  0.5043099E+04
  0.5043046E+04
  0.4968536E+04
  0.4967552E+04
  0.4968239E+04
  0.4888382E+04
  0.4887635E+04
  0.4888042E+04
  0.4801707E+04
  0.4801431E+04
  0.4802098E+04
  0.4710925E+04
  0.4710219E+04
  0.4710381E+04
  0.4614383E+04
  0.4614284E+04
  0.4614809E+04
  0.4513012E+04
  0.4512895E+04
  0.4513286E+04
  0.4408829E+04
  0.4407766E+04
  0.4407978E+04
  0.4299293E+04
  0.4298817E+04
  0.4299026E+04
  0.4185824E+04
  0.4185583E+04
  0.4186084E+04
  0.4069834E+04
  0.4069315E+04
  0.4069756E+04
  0.3949015E+04
  0.3948337E+04
  0.3949004E+04
  0.3825565E+04
  0.3825074E+04
  0.3825284E+04
  0.3700674E+04
  0.3700044E+04
  0.3700621E+04
  0.3573325E+04
  0.3572655E+04
  0.3573085E+04
  0.3443145E+04
  0.3442681E+04
  0.3443127E+04
  0.3317813E+04
  0.3317398E+04
  0.3317939E+04
  0.3193044E+04
  0.3192432E+04
  0.3192504E+04
  0.3059648E+04
  0.3059102E+04
  0.3059954E+04
  0.2929575E+04
  0.2929103E+04
  0.2929381E+04
  0.2800775E+04
  0.2800243E+04
  0.2800833E+04
  0.2670966E+04
  0.2670689E+04
  0.2670922E+04
  0.2541620E+04
  0.2541023E+04
  0.2541643E+04
  0.2416210E+04
  0.2415459E+04
  0.2415887E+04
  0.2290342E+04
  0.2289260E+04
  0.2289782E+04
  0.2165982E+04
  0.2165778E+04
  0.2166521E+04
  0.2043118E+04
  0.2043055E+04
  0.2043121E+04
  0.1927783E+04
  0.1928247E+04
  0.1927585E+04
  0.1807358E+04
  0.1806701E+04
  0.1807488E+04
  0.1695053E+04
  0.1693792E+04
  0.1694729E+04
  0.1577354E+04
  0.1576857E+04
  0.1577540E+04
  0.1478885E+04
  0.1478767E+04
  0.1478639E+04
  0.1361368E+04
  0.1361601E+04
  0.1361438E+04
  0.1272211E+04
  0.1271735E+04
  0.1272091E+04
  0.1157460E+04
  0.1157436E+04
  0.1157508E+04
  0.1088935E+04
  0.1088798E+04
  0.1088875E+04
  0.9630995E+03
  0.9618311E+03
  0.9631276E+03
  0.9421961E+03
  0.9423125E+03
  0.9421475E+03
  0.6908512E+03
  0.6905511E+03
  0.6908674E+03
  0.8026731E+03
  0.8025252E+03
  0.8027823E+03
  0.7479413E+03
  0.7477214E+03
  0.7479849E+03
  0.7322105E+03
  0.7319609E+03
  0.7322410E+03
  0.7281885E+03
  0.7279215E+03
  0.7282082E+03
  0.7245499E+03
  0.7242708E+03
  0.7245628E+03
  0.7200357E+03
  0.7197535E+03
  0.7200447E+03
  0.7155151E+03
  0.7152354E+03
  0.7155212E+03
  0.7111860E+03
  0.7109072E+03
  0.7111879E+03
  0.7070069E+03
  0.7067220E+03
  0.7070013E+03
  0.7035806E+03
  0.7032884E+03
  0.7035649E+03
  0.7014845E+03
  0.7012047E+03
  0.7014627E+03
  0.6994244E+03
  0.6992007E+03
  0.6994103E+03
  0.6949829E+03
  0.6948574E+03
  0.6949966E+03
  0.6868735E+03
  0.6868249E+03
  0.6869169E+03
  0.6777033E+03
  0.6776169E+03
  0.6777549E+03
  0.6709464E+03
  0.6706087E+03
  0.6709439E+03
  0.6694301E+03
  0.6686210E+03
  0.6693000E+03
  0.6643593E+03
  0.6627932E+03
  0.6639986E+03
  0.6587842E+03
  0.6564243E+03
  0.6581551E+03
  0.6495246E+03
  0.6462864E+03
  0.6485655E+03
  0.6348331E+03
  0.6304425E+03
  0.6334327E+03
  0.6220833E+03
  0.6165578E+03
  0.6202455E+03
  0.6012475E+03
  0.5943327E+03
  0.5988486E+03
  0.5850875E+03
  0.5766248E+03
  0.5820237E+03
  0.5628933E+03
  0.5528438E+03
  0.5591927E+03
  0.5445246E+03
  0.5330602E+03
  0.5402620E+03
  0.5272786E+03
  0.5146168E+03
  0.5226537E+03
  0.5115951E+03
  0.4976792E+03
  0.5065577E+03
  0.4939305E+03
  0.4792584E+03
  0.4888471E+03
  0.4784356E+03
  0.4630216E+03
  0.4734005E+03
  0.4680227E+03
  0.4518222E+03
  0.4631007E+03
  0.4556228E+03
  0.4386563E+03
  0.4509495E+03
  0.4457056E+03
  0.4281151E+03
  0.4414042E+03
  0.4309834E+03
  0.4133699E+03
  0.4271688E+03
  0.4185733E+03
  0.4009273E+03
  0.4152833E+03
  0.4085150E+03
  0.3907285E+03
  0.4058197E+03
  0.4009893E+03
  0.3829849E+03
  0.3987644E+03
  0.3965981E+03
  0.3781827E+03
  0.3948641E+03
  0.3939856E+03
  0.3751075E+03
  0.3926909E+03
  0.1928063E+03
  0.1928063E+03
  0.1928063E+03
  0.1928063E+03
  0.1928063E+03
  0.1928063E+03
  0.1928063E+03
  0.1928063E+03
  0.1928063E+03
  0.1928063E+03
  0.1928063E+03
  0.1928063E+03
  0.1928063E+03
  0.1928063E+03
  0.1928063E+03
  0.1928063E+03
  0.1928063E+03
  0.1928063E+03
  0.1928063E+03
  0.1928063E+03
  0.1928063E+03
  0.1928063E+03
  0.1928063E+03
  0.1928063E+03
  0.1928063E+03
  0.1928063E+03
  0.1928063E+03
  0.1928063E+03
  0.1928063E+03
  0.1928063E+03
  0.1928063E+03
  0.1928063E+03
  0.1928063E+03
  0.1928063E+03
  0.1928063E+03
  0.1928063E+03
  0.1928063E+03
  0.1928063E+03
  0.1928063E+03
  0.1928063E+03
  0.1928063E+03
  0.1928063E+03
  0.1928063E+03
  0.1928063E+03
  0.1928063E+03
  0.1928063E+03
  0.1928063E+03
  0.1928063E+03
  0.1928063E+03
  0.1928063E+03
  0.1928063E+03
  0.1928063E+03
  0.1928063E+03
  0.1928063E+03
  0.1928063E+03
  0.1928063E+03
  0.1928063E+03
  0.1928063E+03
  0.1928063E+03
  0.1928063E+03
  0.1928063E+03
  0.1928063E+03
  0.1928063E+03
  0.1928063E+03
  0.1928063E+03
  0.1928063E+03
  0.1928063E+03
  0.1928063E+03
  0.1928063E+03
  0.1928063E+03
  0.1928063E+03
  0.1928063E+03
  0.1928063E+03
  0.1928063E+03
  0.1928063E+03
  0.1928063E+03
  0.1928063E+03
  0.1928063E+03
  0.1928063E+03
  0.1928063E+03
  0.1928063E+03
  0.1928063E+03
  0.1928063E+03
  0.1928063E+03
  0.1928063E+03
  0.1928063E+03
  0.1928063E+03
  0.1928063E+03
  0.1928063E+03
  0.1928063E+03
  0.1928063E+03
  0.1928063E+03
  0.1928063E+03
  0.1928063E+03
  0.1928063E+03
  0.1928063E+03
  0.1928063E+03
  0.1928063E+03
  0.1928063E+03
  0.1928063E+03
  0.1928063E+03
  0.1928063E+03
  0.1928063E+03
  0.1928063E+03
  0.1928063E+03
  0.1928063E+03
  0.1928063E+03
  0.1928063E+03
  0.1928063E+03
  0.1928063E+03
  0.1928063E+03
  0.1928063E+03
  0.1928063E+03
  0.1928063E+03
  0.1928063E+03
  0.1928063E+03
  0.1928063E+03
  0.1928063E+03
  0.1928063E+03
  0.1928063E+03
  0.1928063E+03
  0.1928063E+03
  0.1928063E+03
  0.1928063E+03
  0.1928063E+03
  0.1928063E+03
  0.1928063E+03
  0.1928063E+03
  0.1928063E+03
  0.1928063E+03
  0.1928063E+03
  0.1928063E+03
  0.1928063E+03
  0.1928063E+03
  0.1928063E+03
  0.1928063E+03
  0.1928063E+03
  0.1928063E+03
  0.1928063E+03
  0.1928063E+03
  0.1928063E+03
  0.1928063E+03
  0.1928063E+03
  0.1928063E+03
  0.1928063E+03
  0.1928063E+03
  0.1928063E+03
  0.1928063E+03
  0.1928063E+03
  0.1928063E+03
  0.1928063E+03
  0.1928063E+03
  0.1928063E+03
  0.1928063E+03
  0.1928063E+03
  0.1928063E+03
  0.1928063E+03
  0.1928063E+03
  0.1928063E+03
  0.1928063E+03
  0.1928063E+03
  0.1928063E+03
  0.1928063E+03
  0.1928063E+03
  0.1928063E+03
  0.1928063E+03
  0.1928063E+03
  0.1928063E+03
  0.1928063E+03
  0.1928063E+03
  0.1928063E+03
  0.1928063E+03
  0.1928063E+03
  0.1928063E+03
  0.1928063E+03
  0.1928063E+03
  0.1928063E+03
  0.1928063E+03
  0.1928063E+03
  0.1928063E+03
  0.1928063E+03
  0.1928063E+03
  0.1928063E+03
  0.1928063E+03
  0.1928063E+03
  0.1928063E+03
  0.1928063E+03
  0.1928063E+03
  0.1928063E+03
  0.1928063E+03
  0.1928063E+03
  0.1928063E+03
  0.1928063E+03
  0.1928063E+03
  0.1928063E+03
  0.1928063E+03
  0.1928063E+03
  0.1928063E+03
  0.1928063E+03
  0.1928063E+03
  0.1928063E+03
  0.1928063E+03
  0.1928063E+03
  0.1928063E+03
  0.1928063E+03
  0.1928063E+03
  0.1928063E+03
  0.1928063E+03
  0.1928063E+03
  0.1928063E+03
  0.1928063E+03
  0.1928063E+03
  0.1928063E+03
  0.1928063E+03
  0.1928063E+03
  0.1928063E+03
  0.1928063E+03
  0.1928063E+03
  0.1928063E+03
  0.1928063E+03
  0.1928063E+03
  0.1928063E+03
  0.1928063E+03
  0.1928063E+03
  0.1928063E+03
  0.1928063E+03
  0.1928063E+03
  0.1928063E+03
  0.1928063E+03
  0.1928063E+03
  0.1928063E+03
  0.1928063E+03
  0.1928063E+03
  0.1928063E+03
  0.1928063E+03
  0.1928063E+03
  0.1928063E+03
  0.1928063E+03
  0.1928063E+03
  0.1928063E+03
  0.1928063E+03
  0.1928063E+03
  0.1928063E+03
  0.1928063E+03
  0.1928063E+03
  0.1928063E+03
  0.1928063E+03
  0.1928063E+03
  0.1928063E+03
  0.1928063E+03
  0.1928063E+03
  0.1928063E+03
  0.1928063E+03
  0.1928063E+03
  0.1928063E+03
  0.1928063E+03
  0.1928063E+03
  0.1928063E+03
  0.1928063E+03
  0.1928063E+03
  0.1928063E+03
  0.1928063E+03
  0.1928063E+03
  0.1928063E+03
  0.5115074E+04