 TITLE = "VectorSurfaceData"
VARIABLES = "x" "y" "z"
  "fnorm1"
  "fnorm2"
  "fnorm3"
  "fnorm"
  "ftau1"
  "ftau2"
  "ftau3"
  "ftau"
  "yplus"
 ZONE T=Bnd2 DATAPACKING=Block
 N=16200
 E=15931
 ZONETYPE=FEQUADRILATERAL
 VarLocation=([4-12]=CellCentered)
 -0.5000000E+02
 -0.4997431E+02
 -0.5000000E+02
 -0.4514801E+02
 -0.4512481E+02
 -0.4514801E+02
 -0.4081610E+02
 -0.4079513E+02
 -0.4081610E+02
 -0.3694121E+02
 -0.3692223E+02
 -0.3694121E+02
 -0.3346925E+02
 -0.3345206E+02
 -0.3346925E+02
 -0.3035362E+02
 -0.3033802E+02
 -0.3035362E+02
 -0.2755393E+02
 -0.2753978E+02
 -0.2755393E+02
 -0.2503508E+02
 -0.2502222E+02
 -0.2503508E+02
 -0.2276641E+02
 -0.2275471E+02
 -0.2276641E+02
 -0.2072103E+02
 -0.2071039E+02
 -0.2072103E+02
 -0.1887534E+02
 -0.1886564E+02
 -0.1887534E+02
 -0.1720848E+02
 -0.1719964E+02
 -0.1720848E+02
 -0.1570205E+02
 -0.1569398E+02
 -0.1570205E+02
 -0.1433970E+02
 -0.1433233E+02
 -0.1433970E+02
 -0.1310693E+02
 -0.1310019E+02
 -0.1310693E+02
 -0.1199080E+02
 -0.1198464E+02
 -0.1199080E+02
 -0.1097979E+02
 -0.1097415E+02
 -0.1097979E+02
 -0.1006360E+02
 -0.1005843E+02
 -0.1006360E+02
 -0.9232997E+01
 -0.9228251E+01
 -0.9232997E+01
 -0.8479717E+01
 -0.8475359E+01
 -0.8479717E+01
 -0.7796338E+01
 -0.7792331E+01
 -0.7796338E+01
 -0.7176187E+01
 -0.7172499E+01
 -0.7176187E+01
 -0.6613263E+01
 -0.6609864E+01
 -0.6613263E+01
 -0.6102159E+01
 -0.6099023E+01
 -0.6102159E+01
 -0.5638002E+01
 -0.5635104E+01
 -0.5638002E+01
 -0.5216394E+01
 -0.5213713E+01
 -0.5216394E+01
 -0.4833364E+01
 -0.4830879E+01
 -0.4833364E+01
 -0.4485324E+01
 -0.4483018E+01
 -0.4485324E+01
 -0.4169030E+01
 -0.4166887E+01
 -0.4169030E+01
 -0.3881546E+01
 -0.3879550E+01
 -0.3881546E+01
 -0.3620215E+01
 -0.3618355E+01
 -0.3620215E+01
 -0.3382632E+01
 -0.3380893E+01
 -0.3382632E+01
 -0.3166616E+01
 -0.3164988E+01
 -0.3166616E+01
 -0.2970190E+01
 -0.2968663E+01
 -0.2970190E+01
 -0.2791563E+01
 -0.2790127E+01
 -0.2791563E+01
 -0.2629109E+01
 -0.2627757E+01
 -0.2629109E+01
 -0.2481353E+01
 -0.2480077E+01
 -0.2481353E+01
 -0.2346957E+01
 -0.2345750E+01
 -0.2346957E+01
 -0.2224706E+01
 -0.2223562E+01
 -0.2224706E+01
 -0.2113496E+01
 -0.2112409E+01
 -0.2113496E+01
 -0.2012325E+01
 -0.2011290E+01
 -0.2012325E+01
 -0.1920284E+01
 -0.1919296E+01
 -0.1920284E+01
 -0.1836544E+01
 -0.1835599E+01
 -0.1836544E+01
 -0.1760354E+01
 -0.1759448E+01
 -0.1760354E+01
 -0.1691031E+01
 -0.1690161E+01
 -0.1691031E+01
 -0.1627955E+01
 -0.1627118E+01
 -0.1627955E+01
 -0.1570561E+01
 -0.1569753E+01
 -0.1570561E+01
 -0.1518335E+01
 -0.1517554E+01
 -0.1518335E+01
 -0.1470812E+01
 -0.1470055E+01
 -0.1470812E+01
 -0.1427566E+01
 -0.1426832E+01
 -0.1427566E+01
 -0.1388213E+01
 -0.1387499E+01
 -0.1388213E+01
 -0.1352401E+01
 -0.1351705E+01
 -0.1352401E+01
 -0.1319811E+01
 -0.1319132E+01
 -0.1319811E+01
 -0.1290153E+01
 -0.1289489E+01
 -0.1290153E+01
 -0.1263162E+01
 -0.1262512E+01
 -0.1263162E+01
 -0.1238599E+01
 -0.1237961E+01
 -0.1238599E+01
 -0.1216244E+01
 -0.1215618E+01
 -0.1216244E+01
 -0.1195900E+01
 -0.1195284E+01
 -0.1195900E+01
 -0.1177385E+01
 -0.1176779E+01
 -0.1177385E+01
 -0.1160534E+01
 -0.1159937E+01
 -0.1160534E+01
 -0.1145198E+01
 -0.1144609E+01
 -0.1145198E+01
 -0.1131241E+01
 -0.1130658E+01
 -0.1131241E+01
 -0.1118538E+01
 -0.1117962E+01
 -0.1118538E+01
 -0.1106977E+01
 -0.1106407E+01
 -0.1106977E+01
 -0.1096455E+01
 -0.1095890E+01
 -0.1096455E+01
 -0.1086878E+01
 -0.1086318E+01
 -0.1086878E+01
 -0.1078162E+01
 -0.1077607E+01
 -0.1078162E+01
 -0.1070229E+01
 -0.1069679E+01
 -0.1070229E+01
 -0.1063009E+01
 -0.1062462E+01
 -0.1063009E+01
 -0.1056438E+01
 -0.1055895E+01
 -0.1056438E+01
 -0.1050458E+01
 -0.1049917E+01
 -0.1050458E+01
 -0.1045014E+01
 -0.1044477E+01
 -0.1045014E+01
 -0.1040060E+01
 -0.1039525E+01
 -0.1040060E+01
 -0.1035551E+01
 -0.1035018E+01
 -0.1035551E+01
 -0.1031447E+01
 -0.1030916E+01
 -0.1031447E+01
 -0.1027712E+01
 -0.1027183E+01
 -0.1027712E+01
 -0.1024312E+01
 -0.1023785E+01
 -0.1024312E+01
 -0.1021218E+01
 -0.1020692E+01
 -0.1021218E+01
 -0.1018402E+01
 -0.1017877E+01
 -0.1018402E+01
 -0.1015838E+01
 -0.1015315E+01
 -0.1015838E+01
 -0.1013505E+01
 -0.1012984E+01
 -0.1013505E+01
 -0.1011382E+01
 -0.1010861E+01
 -0.1011382E+01
 -0.1009449E+01
 -0.1008930E+01
 -0.1009449E+01
 -0.1007690E+01
 -0.1007172E+01
 -0.1007690E+01
 -0.1006089E+01
 -0.1005571E+01
 -0.1006089E+01
 -0.1004632E+01
 -0.1004115E+01
 -0.1004632E+01
 -0.1003306E+01
 -0.1002789E+01
 -0.1003306E+01
 -0.1002099E+01
 -0.1001583E+01
 -0.1002099E+01
 -0.1001000E+01
 -0.1000485E+01
 -0.1001000E+01
 -0.1000000E+01
 -0.9994853E+00
 -0.1000000E+01
 -0.5000000E+02
 -0.4514801E+02
 -0.4081610E+02
 -0.3694121E+02
 -0.3346925E+02
 -0.3035362E+02
 -0.2755393E+02
 -0.2503508E+02
 -0.2276641E+02
 -0.2072103E+02
 -0.1887534E+02
 -0.1720848E+02
 -0.1570205E+02
 -0.1433970E+02
 -0.1310693E+02
 -0.1199080E+02
 -0.1097979E+02
 -0.1006360E+02
 -0.9232997E+01
 -0.8479717E+01
 -0.7796338E+01
 -0.7176187E+01
 -0.6613263E+01
 -0.6102159E+01
 -0.5638002E+01
 -0.5216394E+01
 -0.4833364E+01
 -0.4485324E+01
 -0.4169030E+01
 -0.3881546E+01
 -0.3620215E+01
 -0.3382632E+01
 -0.3166616E+01
 -0.2970190E+01
 -0.2791563E+01
 -0.2629109E+01
 -0.2481353E+01
 -0.2346957E+01
 -0.2224706E+01
 -0.2113496E+01
 -0.2012325E+01
 -0.1920284E+01
 -0.1836544E+01
 -0.1760354E+01
 -0.1691031E+01
 -0.1627955E+01
 -0.1570561E+01
 -0.1518335E+01
 -0.1470812E+01
 -0.1427566E+01
 -0.1388213E+01
 -0.1352401E+01
 -0.1319811E+01
 -0.1290153E+01
 -0.1263162E+01
 -0.1238599E+01
 -0.1216244E+01
 -0.1195900E+01
 -0.1177385E+01
 -0.1160534E+01
 -0.1145198E+01
 -0.1131241E+01
 -0.1118538E+01
 -0.1106977E+01
 -0.1096455E+01
 -0.1086878E+01
 -0.1078162E+01
 -0.1070229E+01
 -0.1063009E+01
 -0.1056438E+01
 -0.1050458E+01
 -0.1045014E+01
 -0.1040060E+01
 -0.1035551E+01
 -0.1031447E+01
 -0.1027712E+01
 -0.1024312E+01
 -0.1021218E+01
 -0.1018402E+01
 -0.1015838E+01
 -0.1013505E+01
 -0.1011382E+01
 -0.1009449E+01
 -0.1007690E+01
 -0.1006089E+01
 -0.1004632E+01
 -0.1003306E+01
 -0.1002099E+01
 -0.1001000E+01
 -0.1000000E+01
 -0.5000000E+02
 -0.4997431E+02
 -0.4514801E+02
 -0.4512481E+02
 -0.4081610E+02
 -0.4079513E+02
 -0.3694121E+02
 -0.3692223E+02
 -0.3346925E+02
 -0.3345206E+02
 -0.3035362E+02
 -0.3033802E+02
 -0.2755393E+02
 -0.2753978E+02
 -0.2503508E+02
 -0.2502222E+02
 -0.2276641E+02
 -0.2275471E+02
 -0.2072103E+02
 -0.2071039E+02
 -0.1887534E+02
 -0.1886564E+02
 -0.1720848E+02
 -0.1719964E+02
 -0.1570205E+02
 -0.1569398E+02
 -0.1433970E+02
 -0.1433234E+02
 -0.1310693E+02
 -0.1310019E+02
 -0.1199080E+02
 -0.1198464E+02
 -0.1097979E+02
 -0.1097415E+02
 -0.1006360E+02
 -0.1005843E+02
 -0.9232997E+01
 -0.9228252E+01
 -0.8479717E+01
 -0.8475360E+01
 -0.7796338E+01
 -0.7792332E+01
 -0.7176187E+01
 -0.7172500E+01
 -0.6613263E+01
 -0.6609865E+01
 -0.6102159E+01
 -0.6099024E+01
 -0.5638002E+01
 -0.5635105E+01
 -0.5216394E+01
 -0.5213714E+01
 -0.4833364E+01
 -0.4830880E+01
 -0.4485324E+01
 -0.4483019E+01
 -0.4169030E+01
 -0.4166887E+01
 -0.3881546E+01
 -0.3879551E+01
 -0.3620215E+01
 -0.3618355E+01
 -0.3382632E+01
 -0.3380894E+01
 -0.3166616E+01
 -0.3164989E+01
 -0.2970190E+01
 -0.2968664E+01
 -0.2791563E+01
 -0.2790128E+01
 -0.2629109E+01
 -0.2627758E+01
 -0.2481353E+01
 -0.2480078E+01
 -0.2346957E+01
 -0.2345751E+01
 -0.2224706E+01
 -0.2223562E+01
 -0.2113496E+01
 -0.2112410E+01
 -0.2012325E+01
 -0.2011291E+01
 -0.1920284E+01
 -0.1919297E+01
 -0.1836544E+01
 -0.1835600E+01
 -0.1760354E+01
 -0.1759449E+01
 -0.1691031E+01
 -0.1690162E+01
 -0.1627955E+01
 -0.1627118E+01
 -0.1570561E+01
 -0.1569754E+01
 -0.1518335E+01
 -0.1517555E+01
 -0.1470812E+01
 -0.1470056E+01
 -0.1427566E+01
 -0.1426833E+01
 -0.1388213E+01
 -0.1387500E+01
 -0.1352401E+01
 -0.1351706E+01
 -0.1319811E+01
 -0.1319133E+01
 -0.1290153E+01
 -0.1289489E+01
 -0.1263162E+01
 -0.1262513E+01
 -0.1238599E+01
 -0.1237962E+01
 -0.1216244E+01
 -0.1215619E+01
 -0.1195900E+01
 -0.1195285E+01
 -0.1177385E+01
 -0.1176779E+01
 -0.1160534E+01
 -0.1159937E+01
 -0.1145198E+01
 -0.1144609E+01
 -0.1131241E+01
 -0.1130659E+01
 -0.1118538E+01
 -0.1117963E+01
 -0.1106977E+01
 -0.1106408E+01
 -0.1096455E+01
 -0.1095891E+01
 -0.1086878E+01
 -0.1086319E+01
 -0.1078162E+01
 -0.1077608E+01
 -0.1070229E+01
 -0.1069679E+01
 -0.1063009E+01
 -0.1062463E+01
 -0.1056438E+01
 -0.1055895E+01
 -0.1050458E+01
 -0.1049918E+01
 -0.1045014E+01
 -0.1044477E+01
 -0.1040060E+01
 -0.1039526E+01
 -0.1035551E+01
 -0.1035019E+01
 -0.1031447E+01
 -0.1030917E+01
 -0.1027712E+01
 -0.1027184E+01
 -0.1024312E+01
 -0.1023786E+01
 -0.1021218E+01
 -0.1020693E+01
 -0.1018402E+01
 -0.1017878E+01
 -0.1015838E+01
 -0.1015316E+01
 -0.1013505E+01
 -0.1012984E+01
 -0.1011382E+01
 -0.1010862E+01
 -0.1009449E+01
 -0.1008930E+01
 -0.1007690E+01
 -0.1007172E+01
 -0.1006089E+01
 -0.1005572E+01
 -0.1004632E+01
 -0.1004116E+01
 -0.1003306E+01
 -0.1002790E+01
 -0.1002099E+01
 -0.1001584E+01
 -0.1001000E+01
 -0.1000485E+01
 -0.1000000E+01
 -0.9994860E+00
 -0.4989726E+02
 -0.4505524E+02
 -0.4073224E+02
 -0.3686531E+02
 -0.3340049E+02
 -0.3029125E+02
 -0.2749732E+02
 -0.2498364E+02
 -0.2271963E+02
 -0.2067846E+02
 -0.1883655E+02
 -0.1717313E+02
 -0.1566979E+02
 -0.1431024E+02
 -0.1308000E+02
 -0.1196616E+02
 -0.1095723E+02
 -0.1004292E+02
 -0.9214025E+01
 -0.8462294E+01
 -0.7780318E+01
 -0.7161442E+01
 -0.6599674E+01
 -0.6089621E+01
 -0.5626417E+01
 -0.5205675E+01
 -0.4823432E+01
 -0.4476108E+01
 -0.4160463E+01
 -0.3873570E+01
 -0.3612777E+01
 -0.3375682E+01
 -0.3160109E+01
 -0.2964087E+01
 -0.2785826E+01
 -0.2623706E+01
 -0.2476254E+01
 -0.2342134E+01
 -0.2220134E+01
 -0.2109153E+01
 -0.2008190E+01
 -0.1916338E+01
 -0.1832770E+01
 -0.1756737E+01
 -0.1687557E+01
 -0.1624610E+01
 -0.1567333E+01
 -0.1515215E+01
 -0.1467789E+01
 -0.1424633E+01
 -0.1385360E+01
 -0.1349622E+01
 -0.1317099E+01
 -0.1287501E+01
 -0.1260566E+01
 -0.1236053E+01
 -0.1213745E+01
 -0.1193442E+01
 -0.1174965E+01
 -0.1158149E+01
 -0.1142845E+01
 -0.1128916E+01
 -0.1116239E+01
 -0.1104702E+01
 -0.1094201E+01
 -0.1084645E+01
 -0.1075947E+01
 -0.1068030E+01
 -0.1060825E+01
 -0.1054268E+01
 -0.1048299E+01
 -0.1042867E+01
 -0.1037923E+01
 -0.1033423E+01
 -0.1029328E+01
 -0.1025600E+01
 -0.1022207E+01
 -0.1019119E+01
 -0.1016309E+01
 -0.1013751E+01
 -0.1011423E+01
 -0.1009304E+01
 -0.1007375E+01
 -0.1005620E+01
 -0.1004022E+01
 -0.1002568E+01
 -0.1001244E+01
 -0.1000039E+01
 -0.9989430E+00
 -0.9979451E+00
 -0.4989727E+02
 -0.4505525E+02
 -0.4073224E+02
 -0.3686531E+02
 -0.3340049E+02
 -0.3029125E+02
 -0.2749732E+02
 -0.2498365E+02
 -0.2271963E+02
 -0.2067846E+02
 -0.1883656E+02
 -0.1717313E+02
 -0.1566979E+02
 -0.1431024E+02
 -0.1308000E+02
 -0.1196616E+02
 -0.1095723E+02
 -0.1004292E+02
 -0.9214026E+01
 -0.8462295E+01
 -0.7780319E+01
 -0.7161443E+01
 -0.6599675E+01
 -0.6089622E+01
 -0.5626418E+01
 -0.5205676E+01
 -0.4823433E+01
 -0.4476108E+01
 -0.4160464E+01
 -0.3873571E+01
 -0.3612777E+01
 -0.3375682E+01
 -0.3160109E+01
 -0.2964087E+01
 -0.2785827E+01
 -0.2623707E+01
 -0.2476254E+01
 -0.2342135E+01
 -0.2220135E+01
 -0.2109153E+01
 -0.2008191E+01
 -0.1916338E+01
 -0.1832770E+01
 -0.1756737E+01
 -0.1687557E+01
 -0.1624610E+01
 -0.1567334E+01
 -0.1515215E+01
 -0.1467790E+01
 -0.1424633E+01
 -0.1385361E+01
 -0.1349622E+01
 -0.1317099E+01
 -0.1287502E+01
 -0.1260566E+01
 -0.1236053E+01
 -0.1213745E+01
 -0.1193442E+01
 -0.1174965E+01
 -0.1158149E+01
 -0.1142845E+01
 -0.1128916E+01
 -0.1116239E+01
 -0.1104702E+01
 -0.1094201E+01
 -0.1084645E+01
 -0.1075947E+01
 -0.1068030E+01
 -0.1060825E+01
 -0.1054268E+01
 -0.1048299E+01
 -0.1042867E+01
 -0.1037923E+01
 -0.1033423E+01
 -0.1029328E+01
 -0.1025600E+01
 -0.1022207E+01
 -0.1019119E+01
 -0.1016309E+01
 -0.1013751E+01
 -0.1011423E+01
 -0.1009304E+01
 -0.1007375E+01
 -0.1005620E+01
 -0.1004022E+01
 -0.1002568E+01
 -0.1001244E+01
 -0.1000040E+01
 -0.9989431E+00
 -0.9979452E+00
 -0.4976895E+02
 -0.4493938E+02
 -0.4062749E+02
 -0.3677051E+02
 -0.3331459E+02
 -0.3021336E+02
 -0.2742661E+02
 -0.2491940E+02
 -0.2266121E+02
 -0.2062528E+02
 -0.1878811E+02
 -0.1712897E+02
 -0.1562949E+02
 -0.1427344E+02
 -0.1304636E+02
 -0.1193539E+02
 -0.1092905E+02
 -0.1001709E+02
 -0.9190331E+01
 -0.8440533E+01
 -0.7760311E+01
 -0.7143026E+01
 -0.6582703E+01
 -0.6073961E+01
 -0.5611948E+01
 -0.5192289E+01
 -0.4811028E+01
 -0.4464597E+01
 -0.4149765E+01
 -0.3863609E+01
 -0.3603486E+01
 -0.3367001E+01
 -0.3151983E+01
 -0.2956464E+01
 -0.2778662E+01
 -0.2616959E+01
 -0.2469886E+01
 -0.2336111E+01
 -0.2214425E+01
 -0.2103729E+01
 -0.2003026E+01
 -0.1911409E+01
 -0.1828057E+01
 -0.1752219E+01
 -0.1683217E+01
 -0.1620432E+01
 -0.1563303E+01
 -0.1511318E+01
 -0.1464015E+01
 -0.1420969E+01
 -0.1381798E+01
 -0.1346151E+01
 -0.1313712E+01
 -0.1284190E+01
 -0.1257324E+01
 -0.1232875E+01
 -0.1210624E+01
 -0.1190373E+01
 -0.1171943E+01
 -0.1155171E+01
 -0.1139906E+01
 -0.1126013E+01
 -0.1113369E+01
 -0.1101861E+01
 -0.1091387E+01
 -0.1081855E+01
 -0.1073179E+01
 -0.1065283E+01
 -0.1058097E+01
 -0.1051556E+01
 -0.1045603E+01
 -0.1040185E+01
 -0.1035254E+01
 -0.1030765E+01
 -0.1026680E+01
 -0.1022962E+01
 -0.1019578E+01
 -0.1016498E+01
 -0.1013695E+01
 -0.1011144E+01
 -0.1008821E+01
 -0.1006708E+01
 -0.1004784E+01
 -0.1003033E+01
 -0.1001440E+01
 -0.9999893E+00
 -0.9986691E+00
 -0.9974676E+00
 -0.9963740E+00
 -0.9953786E+00
 -0.4976896E+02
 -0.4493938E+02
 -0.4062749E+02
 -0.3677051E+02
 -0.3331460E+02
 -0.3021336E+02
 -0.2742661E+02
 -0.2491940E+02
 -0.2266121E+02
 -0.2062528E+02
 -0.1878812E+02
 -0.1712897E+02
 -0.1562949E+02
 -0.1427344E+02
 -0.1304636E+02
 -0.1193539E+02
 -0.1092906E+02
 -0.1001710E+02
 -0.9190331E+01
 -0.8440534E+01
 -0.7760312E+01
 -0.7143027E+01
 -0.6582704E+01
 -0.6073962E+01
 -0.5611949E+01
 -0.5192289E+01
 -0.4811029E+01
 -0.4464598E+01
 -0.4149765E+01
 -0.3863610E+01
 -0.3603487E+01
 -0.3367001E+01
 -0.3151983E+01
 -0.2956465E+01
 -0.2778663E+01
 -0.2616960E+01
 -0.2469887E+01
 -0.2336112E+01
 -0.2214426E+01
 -0.2103730E+01
 -0.2003026E+01
 -0.1911410E+01
 -0.1828057E+01
 -0.1752219E+01
 -0.1683217E+01
 -0.1620432E+01
 -0.1563303E+01
 -0.1511319E+01
 -0.1464015E+01
 -0.1420970E+01
 -0.1381798E+01
 -0.1346152E+01
 -0.1313712E+01
 -0.1284191E+01
 -0.1257325E+01
 -0.1232875E+01
 -0.1210624E+01
 -0.1190374E+01
 -0.1171944E+01
 -0.1155171E+01
 -0.1139906E+01
 -0.1126013E+01
 -0.1113369E+01
 -0.1101861E+01
 -0.1091388E+01
 -0.1081856E+01
 -0.1073180E+01
 -0.1065284E+01
 -0.1058097E+01
 -0.1051557E+01
 -0.1045604E+01
 -0.1040185E+01
 -0.1035254E+01
 -0.1030766E+01
 -0.1026681E+01
 -0.1022963E+01
 -0.1019579E+01
 -0.1016499E+01
 -0.1013696E+01
 -0.1011144E+01
 -0.1008822E+01
 -0.1006708E+01
 -0.1004785E+01
 -0.1003034E+01
 -0.1001440E+01
 -0.9999897E+00
 -0.9986696E+00
 -0.9974681E+00
 -0.9963744E+00
 -0.9953790E+00
 -0.4958950E+02
 -0.4477734E+02
 -0.4048100E+02
 -0.3663792E+02
 -0.3319447E+02
 -0.3010442E+02
 -0.2732772E+02
 -0.2482955E+02
 -0.2257949E+02
 -0.2055091E+02
 -0.1872037E+02
 -0.1706720E+02
 -0.1557314E+02
 -0.1422197E+02
 -0.1299932E+02
 -0.1189236E+02
 -0.1088965E+02
 -0.9980976E+01
 -0.9157193E+01
 -0.8410098E+01
 -0.7732329E+01
 -0.7117270E+01
 -0.6558968E+01
 -0.6052060E+01
 -0.5591713E+01
 -0.5173566E+01
 -0.4793681E+01
 -0.4448499E+01
 -0.4134801E+01
 -0.3849678E+01
 -0.3590493E+01
 -0.3354860E+01
 -0.3140617E+01
 -0.2945804E+01
 -0.2768643E+01
 -0.2607523E+01
 -0.2460980E+01
 -0.2327688E+01
 -0.2206440E+01
 -0.2096143E+01
 -0.1995803E+01
 -0.1904517E+01
 -0.1821465E+01
 -0.1745901E+01
 -0.1677147E+01
 -0.1614589E+01
 -0.1557666E+01
 -0.1505869E+01
 -0.1458736E+01
 -0.1415845E+01
 -0.1376815E+01
 -0.1341297E+01
 -0.1308974E+01
 -0.1279559E+01
 -0.1252790E+01
 -0.1228429E+01
 -0.1206258E+01
 -0.1186081E+01
 -0.1167717E+01
 -0.1151005E+01
 -0.1135795E+01
 -0.1121952E+01
 -0.1109354E+01
 -0.1097887E+01
 -0.1087452E+01
 -0.1077954E+01
 -0.1069309E+01
 -0.1061442E+01
 -0.1054281E+01
 -0.1047764E+01
 -0.1041833E+01
 -0.1036434E+01
 -0.1031520E+01
 -0.1027048E+01
 -0.1022978E+01
 -0.1019274E+01
 -0.1015902E+01
 -0.1012833E+01
 -0.1010040E+01
 -0.1007498E+01
 -0.1005184E+01
 -0.1003078E+01
 -0.1001161E+01
 -0.9994164E+00
 -0.9978285E+00
 -0.9963833E+00
 -0.9950678E+00
 -0.9938706E+00
 -0.9927810E+00
 -0.9917892E+00
 -0.4958950E+02
 -0.4477734E+02
 -0.4048100E+02
 -0.3663792E+02
 -0.3319447E+02
 -0.3010442E+02
 -0.2732772E+02
 -0.2482955E+02
 -0.2257949E+02
 -0.2055091E+02
 -0.1872037E+02
 -0.1706720E+02
 -0.1557314E+02
 -0.1422197E+02
 -0.1299932E+02
 -0.1189236E+02
 -0.1088965E+02
 -0.9980976E+01
 -0.9157193E+01
 -0.8410098E+01
 -0.7732329E+01
 -0.7117270E+01
 -0.6558968E+01
 -0.6052060E+01
 -0.5591714E+01
 -0.5173567E+01
 -0.4793682E+01
 -0.4448499E+01
 -0.4134801E+01
 -0.3849678E+01
 -0.3590493E+01
 -0.3354861E+01
 -0.3140618E+01
 -0.2945804E+01
 -0.2768644E+01
 -0.2607523E+01
 -0.2460981E+01
 -0.2327688E+01
 -0.2206441E+01
 -0.2096144E+01
 -0.1995804E+01
 -0.1904518E+01
 -0.1821465E+01
 -0.1745901E+01
 -0.1677148E+01
 -0.1614589E+01
 -0.1557666E+01
 -0.1505869E+01
 -0.1458736E+01
 -0.1415846E+01
 -0.1376815E+01
 -0.1341297E+01
 -0.1308975E+01
 -0.1279560E+01
 -0.1252791E+01
 -0.1228429E+01
 -0.1206258E+01
 -0.1186081E+01
 -0.1167718E+01
 -0.1151006E+01
 -0.1135795E+01
 -0.1121953E+01
 -0.1109354E+01
 -0.1097888E+01
 -0.1087452E+01
 -0.1077954E+01
 -0.1069310E+01
 -0.1061442E+01
 -0.1054282E+01
 -0.1047765E+01
 -0.1041833E+01
 -0.1036435E+01
 -0.1031521E+01
 -0.1027049E+01
 -0.1022979E+01
 -0.1019274E+01
 -0.1015902E+01
 -0.1012833E+01
 -0.1010040E+01
 -0.1007498E+01
 -0.1005184E+01
 -0.1003078E+01
 -0.1001161E+01
 -0.9994168E+00
 -0.9978290E+00
 -0.9963837E+00
 -0.9950683E+00
 -0.9938711E+00
 -0.9927815E+00
 -0.9917896E+00
 -0.4935909E+02
 -0.4456929E+02
 -0.4029291E+02
 -0.3646769E+02
 -0.3304024E+02
 -0.2996454E+02
 -0.2720074E+02
 -0.2471418E+02
 -0.2247458E+02
 -0.2045543E+02
 -0.1863339E+02
 -0.1698790E+02
 -0.1550078E+02
 -0.1415589E+02
 -0.1293892E+02
 -0.1183710E+02
 -0.1083905E+02
 -0.9934600E+01
 -0.9114645E+01
 -0.8371021E+01
 -0.7696402E+01
 -0.7084200E+01
 -0.6528492E+01
 -0.6023940E+01
 -0.5565732E+01
 -0.5149528E+01
 -0.4771408E+01
 -0.4427829E+01
 -0.4115589E+01
 -0.3831790E+01
 -0.3573810E+01
 -0.3339272E+01
 -0.3126024E+01
 -0.2932117E+01
 -0.2755779E+01
 -0.2595407E+01
 -0.2449545E+01
 -0.2316872E+01
 -0.2196188E+01
 -0.2086404E+01
 -0.1986530E+01
 -0.1895668E+01
 -0.1813002E+01
 -0.1737788E+01
 -0.1669354E+01
 -0.1607087E+01
 -0.1550428E+01
 -0.1498872E+01
 -0.1451958E+01
 -0.1409267E+01
 -0.1370418E+01
 -0.1335065E+01
 -0.1302892E+01
 -0.1273614E+01
 -0.1246969E+01
 -0.1222721E+01
 -0.1200653E+01
 -0.1180570E+01
 -0.1162292E+01
 -0.1145657E+01
 -0.1130518E+01
 -0.1116739E+01
 -0.1104199E+01
 -0.1092786E+01
 -0.1082399E+01
 -0.1072945E+01
 -0.1064341E+01
 -0.1056510E+01
 -0.1049383E+01
 -0.1042896E+01
 -0.1036992E+01
 -0.1031618E+01
 -0.1026728E+01
 -0.1022276E+01
 -0.1018225E+01
 -0.1014538E+01
 -0.1011181E+01
 -0.1008127E+01
 -0.1005347E+01
 -0.1002816E+01
 -0.1000513E+01
 -0.9984170E+00
 -0.9965091E+00
 -0.9947727E+00
 -0.9931921E+00
 -0.9917536E+00
 -0.9904444E+00
 -0.9892527E+00
 -0.9881681E+00
 -0.9871809E+00
 -0.4935909E+02
 -0.4456929E+02
 -0.4029291E+02
 -0.3646769E+02
 -0.3304024E+02
 -0.2996454E+02
 -0.2720074E+02
 -0.2471418E+02
 -0.2247458E+02
 -0.2045543E+02
 -0.1863339E+02
 -0.1698790E+02
 -0.1550078E+02
 -0.1415589E+02
 -0.1293892E+02
 -0.1183710E+02
 -0.1083905E+02
 -0.9934601E+01
 -0.9114646E+01
 -0.8371022E+01
 -0.7696403E+01
 -0.7084201E+01
 -0.6528492E+01
 -0.6023940E+01
 -0.5565732E+01
 -0.5149528E+01
 -0.4771409E+01
 -0.4427830E+01
 -0.4115590E+01
 -0.3831791E+01
 -0.3573811E+01
 -0.3339273E+01
 -0.3126025E+01
 -0.2932117E+01
 -0.2755780E+01
 -0.2595408E+01
 -0.2449546E+01
 -0.2316873E+01
 -0.2196189E+01
 -0.2086405E+01
 -0.1986531E+01
 -0.1895669E+01
 -0.1813002E+01
 -0.1737789E+01
 -0.1669355E+01
 -0.1607087E+01
 -0.1550429E+01
 -0.1498873E+01
 -0.1451958E+01
 -0.1409267E+01
 -0.1370418E+01
 -0.1335065E+01
 -0.1302893E+01
 -0.1273615E+01
 -0.1246970E+01
 -0.1222722E+01
 -0.1200654E+01
 -0.1180570E+01
 -0.1162292E+01
 -0.1145658E+01
 -0.1130518E+01
 -0.1116740E+01
 -0.1104200E+01
 -0.1092787E+01
 -0.1082400E+01
 -0.1072946E+01
 -0.1064342E+01
 -0.1056511E+01
 -0.1049383E+01
 -0.1042897E+01
 -0.1036993E+01
 -0.1031619E+01
 -0.1026728E+01
 -0.1022277E+01
 -0.1018226E+01
 -0.1014538E+01
 -0.1011182E+01
 -0.1008127E+01
 -0.1005347E+01
 -0.1002817E+01
 -0.1000514E+01
 -0.9984176E+00
 -0.9965097E+00
 -0.9947733E+00
 -0.9931928E+00
 -0.9917543E+00
 -0.9904450E+00
 -0.9892533E+00
 -0.9881687E+00
 -0.9871815E+00
 -0.4907795E+02
 -0.4431544E+02
 -0.4006342E+02
 -0.3625998E+02
 -0.3285205E+02
 -0.2979387E+02
 -0.2704581E+02
 -0.2457341E+02
 -0.2234657E+02
 -0.2033892E+02
 -0.1852726E+02
 -0.1689114E+02
 -0.1541249E+02
 -0.1407527E+02
 -0.1286522E+02
 -0.1176968E+02
 -0.1077731E+02
 -0.9878016E+01
 -0.9062732E+01
 -0.8323343E+01
 -0.7652566E+01
 -0.7043851E+01
 -0.6491308E+01
 -0.5989629E+01
 -0.5534032E+01
 -0.5120198E+01
 -0.4744232E+01
 -0.4402610E+01
 -0.4092148E+01
 -0.3809966E+01
 -0.3553455E+01
 -0.3320253E+01
 -0.3108220E+01
 -0.2915416E+01
 -0.2740083E+01
 -0.2580625E+01
 -0.2435594E+01
 -0.2303676E+01
 -0.2183680E+01
 -0.2074521E+01
 -0.1975216E+01
 -0.1884871E+01
 -0.1802675E+01
 -0.1727891E+01
 -0.1659847E+01
 -0.1597934E+01
 -0.1541598E+01
 -0.1490335E+01
 -0.1443688E+01
 -0.1401240E+01
 -0.1362613E+01
 -0.1327461E+01
 -0.1295472E+01
 -0.1266360E+01
 -0.1239867E+01
 -0.1215757E+01
 -0.1193815E+01
 -0.1173846E+01
 -0.1155672E+01
 -0.1139132E+01
 -0.1124079E+01
 -0.1110379E+01
 -0.1097910E+01
 -0.1086562E+01
 -0.1076234E+01
 -0.1066834E+01
 -0.1058279E+01
 -0.1050493E+01
 -0.1043406E+01
 -0.1036956E+01
 -0.1031086E+01
 -0.1025743E+01
 -0.1020880E+01
 -0.1016454E+01
 -0.1012426E+01
 -0.1008759E+01
 -0.1005422E+01
 -0.1002385E+01
 -0.9996209E+00
 -0.9971048E+00
 -0.9948149E+00
 -0.9927306E+00
 -0.9908336E+00
 -0.9891070E+00
 -0.9875355E+00
 -0.9861053E+00
 -0.9848034E+00
 -0.9836186E+00
 -0.9825401E+00
 -0.9815586E+00
 -0.4907796E+02
 -0.4431544E+02
 -0.4006342E+02
 -0.3625998E+02
 -0.3285205E+02
 -0.2979387E+02
 -0.2704582E+02
 -0.2457342E+02
 -0.2234657E+02
 -0.2033892E+02
 -0.1852726E+02
 -0.1689115E+02
 -0.1541249E+02
 -0.1407527E+02
 -0.1286522E+02
 -0.1176968E+02
 -0.1077732E+02
 -0.9878017E+01
 -0.9062733E+01
 -0.8323344E+01
 -0.7652566E+01
 -0.7043852E+01
 -0.6491309E+01
 -0.5989630E+01
 -0.5534032E+01
 -0.5120199E+01
 -0.4744233E+01
 -0.4402611E+01
 -0.4092149E+01
 -0.3809967E+01
 -0.3553456E+01
 -0.3320254E+01
 -0.3108221E+01
 -0.2915417E+01
 -0.2740084E+01
 -0.2580626E+01
 -0.2435595E+01
 -0.2303677E+01
 -0.2183680E+01
 -0.2074521E+01
 -0.1975216E+01
 -0.1884872E+01
 -0.1802676E+01
 -0.1727891E+01
 -0.1659847E+01
 -0.1597934E+01
 -0.1541598E+01
 -0.1490336E+01
 -0.1443689E+01
 -0.1401241E+01
 -0.1362613E+01
 -0.1327461E+01
 -0.1295472E+01
 -0.1266361E+01
 -0.1239868E+01
 -0.1215758E+01
 -0.1193815E+01
 -0.1173846E+01
 -0.1155673E+01
 -0.1139133E+01
 -0.1124079E+01
 -0.1110379E+01
 -0.1097911E+01
 -0.1086563E+01
 -0.1076235E+01
 -0.1066835E+01
 -0.1058280E+01
 -0.1050493E+01
 -0.1043407E+01
 -0.1036957E+01
 -0.1031086E+01
 -0.1025743E+01
 -0.1020881E+01
 -0.1016455E+01
 -0.1012426E+01
 -0.1008760E+01
 -0.1005423E+01
 -0.1002386E+01
 -0.9996214E+00
 -0.9971054E+00
 -0.9948154E+00
 -0.9927312E+00
 -0.9908342E+00
 -0.9891075E+00
 -0.9875361E+00
 -0.9861058E+00
 -0.9848040E+00
 -0.9836191E+00
 -0.9825407E+00
 -0.9815591E+00
 -0.4874640E+02
 -0.4401605E+02
 -0.3979276E+02
 -0.3601501E+02
 -0.3263011E+02
 -0.2959259E+02
 -0.2686310E+02
 -0.2440740E+02
 -0.2219560E+02
 -0.2020151E+02
 -0.1840209E+02
 -0.1677703E+02
 -0.1530837E+02
 -0.1398018E+02
 -0.1277831E+02
 -0.1169016E+02
 -0.1070450E+02
 -0.9811282E+01
 -0.9001506E+01
 -0.8267113E+01
 -0.7600867E+01
 -0.6996265E+01
 -0.6447454E+01
 -0.5949165E+01
 -0.5496645E+01
 -0.5085608E+01
 -0.4712181E+01
 -0.4372867E+01
 -0.4064503E+01
 -0.3784227E+01
 -0.3529449E+01
 -0.3297822E+01
 -0.3087222E+01
 -0.2895721E+01
 -0.2721572E+01
 -0.2563191E+01
 -0.2419140E+01
 -0.2288114E+01
 -0.2168927E+01
 -0.2060506E+01
 -0.1961872E+01
 -0.1872138E+01
 -0.1790497E+01
 -0.1716218E+01
 -0.1648633E+01
 -0.1587139E+01
 -0.1531183E+01
 -0.1480267E+01
 -0.1433935E+01
 -0.1391774E+01
 -0.1353407E+01
 -0.1318493E+01
 -0.1286720E+01
 -0.1257805E+01
 -0.1231491E+01
 -0.1207544E+01
 -0.1185750E+01
 -0.1165916E+01
 -0.1147865E+01
 -0.1131437E+01
 -0.1116485E+01
 -0.1102878E+01
 -0.1090493E+01
 -0.1079222E+01
 -0.1068964E+01
 -0.1059627E+01
 -0.1051130E+01
 -0.1043396E+01
 -0.1036357E+01
 -0.1029951E+01
 -0.1024120E+01
 -0.1018813E+01
 -0.1013983E+01
 -0.1009587E+01
 -0.1005586E+01
 -0.1001945E+01
 -0.9986303E+00
 -0.9956136E+00
 -0.9928679E+00
 -0.9903690E+00
 -0.9880944E+00
 -0.9860243E+00
 -0.9841401E+00
 -0.9824252E+00
 -0.9808643E+00
 -0.9794437E+00
 -0.9781507E+00
 -0.9769738E+00
 -0.9759026E+00
 -0.9749277E+00
 -0.4874640E+02
 -0.4401606E+02
 -0.3979276E+02
 -0.3601501E+02
 -0.3263011E+02
 -0.2959259E+02
 -0.2686310E+02
 -0.2440740E+02
 -0.2219561E+02
 -0.2020151E+02
 -0.1840209E+02
 -0.1677703E+02
 -0.1530837E+02
 -0.1398018E+02
 -0.1277831E+02
 -0.1169017E+02
 -0.1070450E+02
 -0.9811283E+01
 -0.9001506E+01
 -0.8267113E+01
 -0.7600867E+01
 -0.6996265E+01
 -0.6447454E+01
 -0.5949165E+01
 -0.5496645E+01
 -0.5085608E+01
 -0.4712181E+01
 -0.4372867E+01
 -0.4064503E+01
 -0.3784227E+01
 -0.3529449E+01
 -0.3297822E+01
 -0.3087222E+01
 -0.2895721E+01
 -0.2721572E+01
 -0.2563191E+01
 -0.2419140E+01
 -0.2288114E+01
 -0.2168928E+01
 -0.2060506E+01
 -0.1961872E+01
 -0.1872138E+01
 -0.1790497E+01
 -0.1716218E+01
 -0.1648633E+01
 -0.1587139E+01
 -0.1531183E+01
 -0.1480267E+01
 -0.1433935E+01
 -0.1391774E+01
 -0.1353408E+01
 -0.1318493E+01
 -0.1286720E+01
 -0.1257806E+01
 -0.1231492E+01
 -0.1207544E+01
 -0.1185750E+01
 -0.1165916E+01
 -0.1147865E+01
 -0.1131437E+01
 -0.1116485E+01
 -0.1102878E+01
 -0.1090494E+01
 -0.1079222E+01
 -0.1068964E+01
 -0.1059628E+01
 -0.1051130E+01
 -0.1043396E+01
 -0.1036358E+01
 -0.1029951E+01
 -0.1024120E+01
 -0.1018814E+01
 -0.1013984E+01
 -0.1009588E+01
 -0.1005586E+01
 -0.1001945E+01
 -0.9986304E+00
 -0.9956137E+00
 -0.9928681E+00
 -0.9903690E+00
 -0.9880946E+00
 -0.9860244E+00
 -0.9841402E+00
 -0.9824253E+00
 -0.9808644E+00
 -0.9794438E+00
 -0.9781507E+00
 -0.9769739E+00
 -0.9759027E+00
 -0.9749278E+00
 -0.4836474E+02
 -0.4367144E+02
 -0.3948120E+02
 -0.3573304E+02
 -0.3237464E+02
 -0.2936090E+02
 -0.2665278E+02
 -0.2421631E+02
 -0.2202183E+02
 -0.2004335E+02
 -0.1825801E+02
 -0.1664568E+02
 -0.1518851E+02
 -0.1387072E+02
 -0.1267826E+02
 -0.1159864E+02
 -0.1062069E+02
 -0.9734466E+01
 -0.8931028E+01
 -0.8202386E+01
 -0.7541356E+01
 -0.6941488E+01
 -0.6396974E+01
 -0.5902586E+01
 -0.5453609E+01
 -0.5045790E+01
 -0.4675287E+01
 -0.4338630E+01
 -0.4032680E+01
 -0.3754598E+01
 -0.3501815E+01
 -0.3272002E+01
 -0.3063050E+01
 -0.2873048E+01
 -0.2700263E+01
 -0.2543122E+01
 -0.2400199E+01
 -0.2270198E+01
 -0.2151945E+01
 -0.2044373E+01
 -0.1946511E+01
 -0.1857479E+01
 -0.1776478E+01
 -0.1702780E+01
 -0.1635725E+01
 -0.1574711E+01
 -0.1519194E+01
 -0.1468677E+01
 -0.1422708E+01
 -0.1380877E+01
 -0.1342810E+01
 -0.1308169E+01
 -0.1276645E+01
 -0.1247957E+01
 -0.1221849E+01
 -0.1198089E+01
 -0.1176466E+01
 -0.1156787E+01
 -0.1138877E+01
 -0.1122577E+01
 -0.1107743E+01
 -0.1094242E+01
 -0.1081955E+01
 -0.1070772E+01
 -0.1060594E+01
 -0.1051330E+01
 -0.1042900E+01
 -0.1035226E+01
 -0.1028243E+01
 -0.1021886E+01
 -0.1016101E+01
 -0.1010836E+01
 -0.1006044E+01
 -0.1001682E+01
 -0.9977124E+00
 -0.9940993E+00
 -0.9908109E+00
 -0.9878178E+00
 -0.9850936E+00
 -0.9826142E+00
 -0.9803575E+00
 -0.9783036E+00
 -0.9764341E+00
 -0.9747326E+00
 -0.9731840E+00
 -0.9717745E+00
 -0.9704915E+00
 -0.9693239E+00
 -0.9682611E+00
 -0.9672939E+00
 -0.4836474E+02
 -0.4367144E+02
 -0.3948121E+02
 -0.3573304E+02
 -0.3237464E+02
 -0.2936090E+02
 -0.2665278E+02
 -0.2421631E+02
 -0.2202183E+02
 -0.2004335E+02
 -0.1825802E+02
 -0.1664568E+02
 -0.1518851E+02
 -0.1387072E+02
 -0.1267826E+02
 -0.1159864E+02
 -0.1062070E+02
 -0.9734467E+01
 -0.8931030E+01
 -0.8202387E+01
 -0.7541357E+01
 -0.6941489E+01
 -0.6396975E+01
 -0.5902587E+01
 -0.5453610E+01
 -0.5045791E+01
 -0.4675288E+01
 -0.4338631E+01
 -0.4032681E+01
 -0.3754599E+01
 -0.3501816E+01
 -0.3272002E+01
 -0.3063051E+01
 -0.2873049E+01
 -0.2700264E+01
 -0.2543123E+01
 -0.2400199E+01
 -0.2270199E+01
 -0.2151946E+01
 -0.2044374E+01
 -0.1946512E+01
 -0.1857480E+01
 -0.1776479E+01
 -0.1702781E+01
 -0.1635725E+01
 -0.1574712E+01
 -0.1519195E+01
 -0.1468677E+01
 -0.1422708E+01
 -0.1380877E+01
 -0.1342811E+01
 -0.1308170E+01
 -0.1276646E+01
 -0.1247958E+01
 -0.1221850E+01
 -0.1198090E+01
 -0.1176466E+01
 -0.1156787E+01
 -0.1138878E+01
 -0.1122578E+01
 -0.1107744E+01
 -0.1094243E+01
 -0.1081955E+01
 -0.1070772E+01
 -0.1060594E+01
 -0.1051331E+01
 -0.1042900E+01
 -0.1035227E+01
 -0.1028243E+01
 -0.1021887E+01
 -0.1016102E+01
 -0.1010837E+01
 -0.1006045E+01
 -0.1001683E+01
 -0.9977131E+00
 -0.9941001E+00
 -0.9908116E+00
 -0.9878185E+00
 -0.9850944E+00
 -0.9826149E+00
 -0.9803582E+00
 -0.9783043E+00
 -0.9764348E+00
 -0.9747334E+00
 -0.9731847E+00
 -0.9717752E+00
 -0.9704922E+00
 -0.9693246E+00
 -0.9682618E+00
 -0.9672946E+00
 -0.4793339E+02
 -0.4328194E+02
 -0.3912908E+02
 -0.3541435E+02
 -0.3208590E+02
 -0.2909904E+02
 -0.2641507E+02
 -0.2400033E+02
 -0.2182542E+02
 -0.1986459E+02
 -0.1809518E+02
 -0.1649722E+02
 -0.1505305E+02
 -0.1374701E+02
 -0.1256519E+02
 -0.1149519E+02
 -0.1052597E+02
 -0.9647648E+01
 -0.8851377E+01
 -0.8129231E+01
 -0.7474098E+01
 -0.6879579E+01
 -0.6339922E+01
 -0.5849943E+01
 -0.5404971E+01
 -0.5000788E+01
 -0.4633590E+01
 -0.4299935E+01
 -0.3996714E+01
 -0.3721112E+01
 -0.3470583E+01
 -0.3242820E+01
 -0.3035732E+01
 -0.2847425E+01
 -0.2676181E+01
 -0.2520441E+01
 -0.2378793E+01
 -0.2249951E+01
 -0.2132753E+01
 -0.2026140E+01
 -0.1929151E+01
 -0.1840913E+01
 -0.1760635E+01
 -0.1687594E+01
 -0.1621137E+01
 -0.1560667E+01
 -0.1505645E+01
 -0.1455578E+01
 -0.1410019E+01
 -0.1368561E+01
 -0.1330834E+01
 -0.1296502E+01
 -0.1265259E+01
 -0.1236827E+01
 -0.1210952E+01
 -0.1187404E+01
 -0.1165973E+01
 -0.1146470E+01
 -0.1128720E+01