 TITLE = "VectorSurfaceData"
VARIABLES = "x" "y" "z"
  "fnorm1"
  "fnorm2"
  "fnorm3"
  "fnorm"
  "ftau1"
  "ftau2"
  "ftau3"
  "ftau"
  "yplus"
 ZONE T=Bnd3 DATAPACKING=Block
 N=6106
 E=6020
 ZONETYPE=FEQUADRILATERAL
 VarLocation=([4-12]=CellCentered)
 -0.5000000E+02
 -0.4984586E+02
 -0.5000000E+02
 -0.4029800E+02
 -0.4017377E+02
 -0.4029800E+02
 -0.3259478E+02
 -0.3249430E+02
 -0.3259478E+02
 -0.2645143E+02
 -0.2636989E+02
 -0.2645143E+02
 -0.2153477E+02
 -0.2146838E+02
 -0.2153477E+02
 -0.1758872E+02
 -0.1753450E+02
 -0.1758872E+02
 -0.1441449E+02
 -0.1437005E+02
 -0.1441449E+02
 -0.1185646E+02
 -0.1181991E+02
 -0.1185646E+02
 -0.9791987E+01
 -0.9761801E+01
 -0.9791987E+01
 -0.8123863E+01
 -0.8098820E+01
 -0.8123863E+01
 -0.6774705E+01
 -0.6753821E+01
 -0.6774705E+01
 -0.5682679E+01
 -0.5665160E+01
 -0.5682679E+01
 -0.4798223E+01
 -0.4783432E+01
 -0.4798223E+01
 -0.4081521E+01
 -0.4068939E+01
 -0.4081521E+01
 -0.3500515E+01
 -0.3489724E+01
 -0.3500515E+01
 -0.3029358E+01
 -0.3020019E+01
 -0.3029358E+01
 -0.2647176E+01
 -0.2639015E+01
 -0.2647176E+01
 -0.2337100E+01
 -0.2329895E+01
 -0.2337100E+01
 -0.2085480E+01
 -0.2079051E+01
 -0.2085480E+01
 -0.1881267E+01
 -0.1875468E+01
 -0.1881267E+01
 -0.1715510E+01
 -0.1710222E+01
 -0.1715510E+01
 -0.1580954E+01
 -0.1576080E+01
 -0.1580954E+01
 -0.1471718E+01
 -0.1467181E+01
 -0.1471718E+01
 -0.1383031E+01
 -0.1378767E+01
 -0.1383031E+01
 -0.1311024E+01
 -0.1306983E+01
 -0.1311024E+01
 -0.1252558E+01
 -0.1248697E+01
 -0.1252558E+01
 -0.1205085E+01
 -0.1201370E+01
 -0.1205085E+01
 -0.1166536E+01
 -0.1162940E+01
 -0.1166536E+01
 -0.1135234E+01
 -0.1131734E+01
 -0.1135234E+01
 -0.1109816E+01
 -0.1106394E+01
 -0.1109816E+01
 -0.1089175E+01
 -0.1085817E+01
 -0.1089175E+01
 -0.1072413E+01
 -0.1069107E+01
 -0.1072413E+01
 -0.1058801E+01
 -0.1055537E+01
 -0.1058801E+01
 -0.1047748E+01
 -0.1044518E+01
 -0.1047748E+01
 -0.1038771E+01
 -0.1035569E+01
 -0.1038771E+01
 -0.1031482E+01
 -0.1028302E+01
 -0.1031482E+01
 -0.1025562E+01
 -0.1022401E+01
 -0.1025562E+01
 -0.1020755E+01
 -0.1017608E+01
 -0.1020755E+01
 -0.1016851E+01
 -0.1013716E+01
 -0.1016851E+01
 -0.1013680E+01
 -0.1010556E+01
 -0.1013680E+01
 -0.1011106E+01
 -0.1007989E+01
 -0.1011106E+01
 -0.1009015E+01
 -0.1005904E+01
 -0.1009015E+01
 -0.1007317E+01
 -0.1004212E+01
 -0.1007317E+01
 -0.1005938E+01
 -0.1002837E+01
 -0.1005938E+01
 -0.1004818E+01
 -0.1001721E+01
 -0.1004818E+01
 -0.1003909E+01
 -0.1000814E+01
 -0.1003909E+01
 -0.1003170E+01
 -0.1000078E+01
 -0.1003170E+01
 -0.1002571E+01
 -0.9994799E+00
 -0.1002571E+01
 -0.1002083E+01
 -0.9989943E+00
 -0.1002083E+01
 -0.1001688E+01
 -0.9985999E+00
 -0.1001688E+01
 -0.1001367E+01
 -0.9982798E+00
 -0.1001367E+01
 -0.1001106E+01
 -0.9980197E+00
 -0.1001106E+01
 -0.1000894E+01
 -0.9978085E+00
 -0.1000894E+01
 -0.1000722E+01
 -0.9976370E+00
 -0.1000722E+01
 -0.1000582E+01
 -0.9974977E+00
 -0.1000582E+01
 -0.1000469E+01
 -0.9973846E+00
 -0.1000469E+01
 -0.1000377E+01
 -0.9972928E+00
 -0.1000377E+01
 -0.1000302E+01
 -0.9972182E+00
 -0.1000302E+01
 -0.1000241E+01
 -0.9971576E+00
 -0.1000241E+01
 -0.1000192E+01
 -0.9971084E+00
 -0.1000192E+01
 -0.1000152E+01
 -0.9970685E+00
 -0.1000152E+01
 -0.1000119E+01
 -0.9970360E+00
 -0.1000119E+01
 -0.1000093E+01
 -0.9970096E+00
 -0.1000093E+01
 -0.1000071E+01
 -0.9969883E+00
 -0.1000071E+01
 -0.1000054E+01
 -0.9969709E+00
 -0.1000054E+01
 -0.1000040E+01
 -0.9969568E+00
 -0.1000040E+01
 -0.1000028E+01
 -0.9969453E+00
 -0.1000028E+01
 -0.1000019E+01
 -0.9969360E+00
 -0.1000019E+01
 -0.1000011E+01
 -0.9969285E+00
 -0.1000011E+01
 -0.1000005E+01
 -0.9969223E+00
 -0.1000005E+01
 -0.1000000E+01
 -0.9969173E+00
 -0.1000000E+01
 -0.5000000E+02
 -0.4029800E+02
 -0.3259478E+02
 -0.2645143E+02
 -0.2153477E+02
 -0.1758872E+02
 -0.1441449E+02
 -0.1185646E+02
 -0.9791987E+01
 -0.8123863E+01
 -0.6774705E+01
 -0.5682679E+01
 -0.4798223E+01
 -0.4081521E+01
 -0.3500515E+01
 -0.3029358E+01
 -0.2647176E+01
 -0.2337100E+01
 -0.2085480E+01
 -0.1881267E+01
 -0.1715510E+01
 -0.1580954E+01
 -0.1471718E+01
 -0.1383031E+01
 -0.1311024E+01
 -0.1252558E+01
 -0.1205085E+01
 -0.1166536E+01
 -0.1135234E+01
 -0.1109816E+01
 -0.1089175E+01
 -0.1072413E+01
 -0.1058801E+01
 -0.1047748E+01
 -0.1038771E+01
 -0.1031482E+01
 -0.1025562E+01
 -0.1020755E+01
 -0.1016851E+01
 -0.1013680E+01
 -0.1011106E+01
 -0.1009015E+01
 -0.1007317E+01
 -0.1005938E+01
 -0.1004818E+01
 -0.1003909E+01
 -0.1003170E+01
 -0.1002571E+01
 -0.1002083E+01
 -0.1001688E+01
 -0.1001367E+01
 -0.1001106E+01
 -0.1000894E+01
 -0.1000722E+01
 -0.1000582E+01
 -0.1000469E+01
 -0.1000377E+01
 -0.1000302E+01
 -0.1000241E+01
 -0.1000192E+01
 -0.1000152E+01
 -0.1000119E+01
 -0.1000093E+01
 -0.1000071E+01
 -0.1000054E+01
 -0.1000040E+01
 -0.1000028E+01
 -0.1000019E+01
 -0.1000011E+01
 -0.1000005E+01
 -0.1000000E+01
 -0.5000000E+02
 -0.4984587E+02
 -0.4029800E+02
 -0.4017377E+02
 -0.3259478E+02
 -0.3249430E+02
 -0.2645143E+02
 -0.2636989E+02
 -0.2153477E+02
 -0.2146838E+02
 -0.1758872E+02
 -0.1753450E+02
 -0.1441449E+02
 -0.1437005E+02
 -0.1185646E+02
 -0.1181991E+02
 -0.9791987E+01
 -0.9761802E+01
 -0.8123863E+01
 -0.8098820E+01
 -0.6774705E+01
 -0.6753821E+01
 -0.5682679E+01
 -0.5665160E+01
 -0.4798223E+01
 -0.4783432E+01
 -0.4081521E+01
 -0.4068939E+01
 -0.3500515E+01
 -0.3489724E+01
 -0.3029358E+01
 -0.3020019E+01
 -0.2647176E+01
 -0.2639015E+01
 -0.2337100E+01
 -0.2329895E+01
 -0.2085480E+01
 -0.2079051E+01
 -0.1881267E+01
 -0.1875468E+01
 -0.1715510E+01
 -0.1710221E+01
 -0.1580954E+01
 -0.1576080E+01
 -0.1471718E+01
 -0.1467180E+01
 -0.1383031E+01
 -0.1378767E+01
 -0.1311024E+01
 -0.1306982E+01
 -0.1252558E+01
 -0.1248697E+01
 -0.1205085E+01
 -0.1201370E+01
 -0.1166536E+01
 -0.1162940E+01
 -0.1135234E+01
 -0.1131734E+01
 -0.1109816E+01
 -0.1106394E+01
 -0.1089175E+01
 -0.1085817E+01
 -0.1072413E+01
 -0.1069107E+01
 -0.1058801E+01
 -0.1055537E+01
 -0.1047748E+01
 -0.1044517E+01
 -0.1038771E+01
 -0.1035569E+01
 -0.1031482E+01
 -0.1028302E+01
 -0.1025562E+01
 -0.1022400E+01
 -0.1020755E+01
 -0.1017608E+01
 -0.1016851E+01
 -0.1013716E+01
 -0.1013680E+01
 -0.1010555E+01
 -0.1011106E+01
 -0.1007988E+01
 -0.1009015E+01
 -0.1005904E+01
 -0.1007317E+01
 -0.1004211E+01
 -0.1005938E+01
 -0.1002837E+01
 -0.1004818E+01
 -0.1001720E+01
 -0.1003909E+01
 -0.1000814E+01
 -0.1003170E+01
 -0.1000077E+01
 -0.1002571E+01
 -0.9994795E+00
 -0.1002083E+01
 -0.9989940E+00
 -0.1001688E+01
 -0.9985996E+00
 -0.1001367E+01
 -0.9982795E+00
 -0.1001106E+01
 -0.9980194E+00
 -0.1000894E+01
 -0.9978082E+00
 -0.1000722E+01
 -0.9976367E+00
 -0.1000582E+01
 -0.9974974E+00
 -0.1000469E+01
 -0.9973843E+00
 -0.1000377E+01
 -0.9972925E+00
 -0.1000302E+01
 -0.9972178E+00
 -0.1000241E+01
 -0.9971573E+00
 -0.1000192E+01
 -0.9971081E+00
 -0.1000152E+01
 -0.9970681E+00
 -0.1000119E+01
 -0.9970357E+00
 -0.1000093E+01
 -0.9970093E+00
 -0.1000071E+01
 -0.9969879E+00
 -0.1000054E+01
 -0.9969705E+00
 -0.1000040E+01
 -0.9969565E+00
 -0.1000028E+01
 -0.9969450E+00
 -0.1000019E+01
 -0.9969357E+00
 -0.1000011E+01
 -0.9969281E+00
 -0.1000005E+01
 -0.9969220E+00
 -0.1000000E+01
 -0.9969170E+00
 -0.4938441E+02
 -0.3980186E+02
 -0.3219349E+02
 -0.2612577E+02
 -0.2126964E+02
 -0.1737217E+02
 -0.1423702E+02
 -0.1171049E+02
 -0.9671432E+01
 -0.8023845E+01
 -0.6691297E+01
 -0.5612715E+01
 -0.4739149E+01
 -0.4031270E+01
 -0.3457418E+01
 -0.2992061E+01
 -0.2614584E+01
 -0.2308326E+01
 -0.2059804E+01
 -0.1858105E+01
 -0.1694389E+01
 -0.1561490E+01
 -0.1453598E+01
 -0.1366003E+01
 -0.1294883E+01
 -0.1237137E+01
 -0.1190248E+01
 -0.1152174E+01
 -0.1121257E+01
 -0.1096152E+01
 -0.1075765E+01
 -0.1059209E+01
 -0.1045765E+01
 -0.1034848E+01
 -0.1025982E+01
 -0.1018782E+01
 -0.1012935E+01
 -0.1008187E+01
 -0.1004331E+01
 -0.1001200E+01
 -0.9986570E+00
 -0.9965920E+00
 -0.9949148E+00
 -0.9935529E+00
 -0.9924469E+00
 -0.9915487E+00
 -0.9908193E+00
 -0.9902269E+00
 -0.9897459E+00
 -0.9893551E+00
 -0.9890379E+00
 -0.9887803E+00
 -0.9885710E+00
 -0.9884011E+00
 -0.9882631E+00
 -0.9881511E+00
 -0.9880601E+00
 -0.9879862E+00
 -0.9879261E+00
 -0.9878774E+00
 -0.9878379E+00
 -0.9878057E+00
 -0.9877796E+00
 -0.9877584E+00
 -0.9877412E+00
 -0.9877272E+00
 -0.9877158E+00
 -0.9877066E+00
 -0.9876992E+00
 -0.9876931E+00
 -0.9876881E+00
 -0.4938441E+02
 -0.3980186E+02
 -0.3219349E+02
 -0.2612577E+02
 -0.2126964E+02
 -0.1737217E+02
 -0.1423702E+02
 -0.1171049E+02
 -0.9671431E+01
 -0.8023845E+01
 -0.6691297E+01
 -0.5612715E+01
 -0.4739149E+01
 -0.4031270E+01
 -0.3457418E+01
 -0.2992061E+01
 -0.2614585E+01
 -0.2308326E+01
 -0.2059804E+01
 -0.1858106E+01
 -0.1694389E+01
 -0.1561490E+01
 -0.1453598E+01
 -0.1366003E+01
 -0.1294883E+01
 -0.1237137E+01
 -0.1190248E+01
 -0.1152174E+01
 -0.1121258E+01
 -0.1096152E+01
 -0.1075765E+01
 -0.1059210E+01
 -0.1045766E+01
 -0.1034848E+01
 -0.1025982E+01
 -0.1018782E+01
 -0.1012936E+01
 -0.1008188E+01
 -0.1004332E+01
 -0.1001200E+01
 -0.9986573E+00
 -0.9965922E+00
 -0.9949151E+00
 -0.9935532E+00
 -0.9924471E+00
 -0.9915490E+00
 -0.9908195E+00
 -0.9902272E+00
 -0.9897461E+00
 -0.9893554E+00
 -0.9890382E+00
 -0.9887805E+00
 -0.9885713E+00
 -0.9884014E+00
 -0.9882634E+00
 -0.9881513E+00
 -0.9880603E+00
 -0.9879864E+00
 -0.9879264E+00
 -0.9878777E+00
 -0.9878381E+00
 -0.9878059E+00
 -0.9877798E+00
 -0.9877586E+00
 -0.9877414E+00
 -0.9877274E+00
 -0.9877161E+00
 -0.9877068E+00
 -0.9876993E+00
 -0.9876932E+00
 -0.9876884E+00
 -0.4861849E+02
 -0.3918456E+02
 -0.3169418E+02
 -0.2572058E+02
 -0.2093976E+02
 -0.1710274E+02
 -0.1401621E+02
 -0.1152887E+02
 -0.9521433E+01
 -0.7899399E+01
 -0.6587519E+01
 -0.5525665E+01
 -0.4665648E+01
 -0.3968748E+01
 -0.3403795E+01
 -0.2945656E+01
 -0.2574034E+01
 -0.2272525E+01
 -0.2027858E+01
 -0.1829287E+01
 -0.1668110E+01
 -0.1537272E+01
 -0.1431054E+01
 -0.1344817E+01
 -0.1274800E+01
 -0.1217950E+01
 -0.1171788E+01
 -0.1134305E+01
 -0.1103867E+01
 -0.1079151E+01
 -0.1059080E+01
 -0.1042782E+01
 -0.1029546E+01
 -0.1018798E+01
 -0.1010070E+01
 -0.1002982E+01
 -0.9972253E+00
 -0.9925509E+00
 -0.9887548E+00
 -0.9856720E+00
 -0.9831685E+00
 -0.9811354E+00
 -0.9794843E+00
 -0.9781435E+00
 -0.9770547E+00
 -0.9761704E+00
 -0.9754522E+00
 -0.9748691E+00
 -0.9743955E+00
 -0.9740109E+00
 -0.9736986E+00
 -0.9734449E+00
 -0.9732389E+00
 -0.9730716E+00
 -0.9729358E+00
 -0.9728255E+00
 -0.9727359E+00
 -0.9726632E+00
 -0.9726040E+00
 -0.9725561E+00
 -0.9725171E+00
 -0.9724854E+00
 -0.9724597E+00
 -0.9724389E+00
 -0.9724219E+00
 -0.9724082E+00
 -0.9723970E+00
 -0.9723879E+00
 -0.9723805E+00
 -0.9723746E+00
 -0.9723697E+00
 -0.4861849E+02
 -0.3918456E+02
 -0.3169418E+02
 -0.2572058E+02
 -0.2093976E+02
 -0.1710274E+02
 -0.1401621E+02
 -0.1152887E+02
 -0.9521433E+01
 -0.7899400E+01
 -0.6587519E+01
 -0.5525665E+01
 -0.4665648E+01
 -0.3968748E+01
 -0.3403795E+01
 -0.2945656E+01
 -0.2574034E+01
 -0.2272525E+01
 -0.2027858E+01
 -0.1829287E+01
 -0.1668110E+01
 -0.1537272E+01
 -0.1431054E+01
 -0.1344817E+01
 -0.1274800E+01
 -0.1217950E+01
 -0.1171788E+01
 -0.1134305E+01
 -0.1103867E+01
 -0.1079151E+01
 -0.1059080E+01
 -0.1042782E+01
 -0.1029546E+01
 -0.1018798E+01
 -0.1010070E+01
 -0.1002982E+01
 -0.9972254E+00
 -0.9925508E+00
 -0.9887547E+00
 -0.9856720E+00
 -0.9831685E+00
 -0.9811354E+00
 -0.9794843E+00
 -0.9781435E+00
 -0.9770547E+00
 -0.9761704E+00
 -0.9754522E+00
 -0.9748691E+00
 -0.9743955E+00
 -0.9740109E+00
 -0.9736986E+00
 -0.9734449E+00
 -0.9732389E+00
 -0.9730716E+00
 -0.9729358E+00
 -0.9728255E+00
 -0.9727359E+00
 -0.9726631E+00
 -0.9726040E+00
 -0.9725561E+00
 -0.9725171E+00
 -0.9724854E+00
 -0.9724597E+00
 -0.9724389E+00
 -0.9724219E+00
 -0.9724081E+00
 -0.9723970E+00
 -0.9723879E+00
 -0.9723805E+00
 -0.9723745E+00
 -0.9723697E+00
 -0.4755282E+02
 -0.3832567E+02
 -0.3099948E+02
 -0.2515681E+02
 -0.2048078E+02
 -0.1672786E+02
 -0.1370899E+02
 -0.1127616E+02
 -0.9312733E+01
 -0.7726252E+01
 -0.6443127E+01
 -0.5404548E+01
 -0.4563381E+01
 -0.3881757E+01
 -0.3329188E+01
 -0.2881090E+01
 -0.2517614E+01
 -0.2222713E+01
 -0.1983409E+01
 -0.1789191E+01
 -0.1631547E+01
 -0.1503576E+01
 -0.1399686E+01
 -0.1315340E+01
 -0.1246858E+01
 -0.1191253E+01
 -0.1146104E+01
 -0.1109442E+01
 -0.1079672E+01
 -0.1055497E+01
 -0.1035866E+01
 -0.1019925E+01
 -0.1006980E+01
 -0.9964670E+00
 -0.9879300E+00
 -0.9809972E+00
 -0.9753672E+00
 -0.9707952E+00
 -0.9670823E+00
 -0.9640670E+00
 -0.9616184E+00
 -0.9596300E+00
 -0.9580150E+00
 -0.9567036E+00
 -0.9556386E+00
 -0.9547737E+00
 -0.9540713E+00
 -0.9535010E+00
 -0.9530378E+00
 -0.9526615E+00
 -0.9523560E+00
 -0.9521080E+00
 -0.9519065E+00
 -0.9517429E+00
 -0.9516100E+00
 -0.9515021E+00
 -0.9514145E+00
 -0.9513434E+00
 -0.9512855E+00
 -0.9512386E+00
 -0.9512005E+00
 -0.9511696E+00
 -0.9511444E+00
 -0.9511240E+00
 -0.9511074E+00
 -0.9510940E+00
 -0.9510830E+00
 -0.9510741E+00
 -0.9510670E+00
 -0.9510611E+00
 -0.9510563E+00
 -0.4755282E+02
 -0.3832567E+02
 -0.3099948E+02
 -0.2515681E+02
 -0.2048078E+02
 -0.1672786E+02
 -0.1370899E+02
 -0.1127616E+02
 -0.9312733E+01
 -0.7726252E+01
 -0.6443127E+01
 -0.5404548E+01
 -0.4563381E+01
 -0.3881757E+01
 -0.3329187E+01
 -0.2881090E+01
 -0.2517613E+01
 -0.2222713E+01
 -0.1983409E+01
 -0.1789191E+01
 -0.1631547E+01
 -0.1503576E+01
 -0.1399686E+01
 -0.1315340E+01
 -0.1246858E+01
 -0.1191253E+01
 -0.1146103E+01
 -0.1109442E+01
 -0.1079671E+01
 -0.1055497E+01
 -0.1035866E+01
 -0.1019925E+01
 -0.1006979E+01
 -0.9964669E+00
 -0.9879298E+00
 -0.9809971E+00
 -0.9753671E+00
 -0.9707950E+00
 -0.9670821E+00
 -0.9640669E+00
 -0.9616183E+00
 -0.9596298E+00
 -0.9580149E+00
 -0.9567035E+00
 -0.9556385E+00
 -0.9547736E+00
 -0.9540712E+00
 -0.9535008E+00
 -0.9530376E+00
 -0.9526615E+00
 -0.9523559E+00
 -0.9521078E+00
 -0.9519064E+00
 -0.9517428E+00
 -0.9516099E+00
 -0.9515020E+00
 -0.9514143E+00
 -0.9513432E+00
 -0.9512854E+00
 -0.9512385E+00
 -0.9512004E+00
 -0.9511694E+00
 -0.9511443E+00
 -0.9511238E+00
 -0.9511073E+00
 -0.9510938E+00
 -0.9510829E+00
 -0.9510740E+00
 -0.9510668E+00
 -0.9510610E+00
 -0.9510562E+00
 -0.4619397E+02
 -0.3723049E+02
 -0.3011365E+02
 -0.2443794E+02
 -0.1989553E+02
 -0.1624986E+02
 -0.1331725E+02
 -0.1095394E+02
 -0.9046616E+01
 -0.7505470E+01
 -0.6259011E+01
 -0.5250110E+01
 -0.4432980E+01
 -0.3770833E+01
 -0.3234054E+01
 -0.2798761E+01
 -0.2445671E+01
 -0.2159198E+01
 -0.1926732E+01
 -0.1738064E+01
 -0.1584924E+01
 -0.1460611E+01
 -0.1359690E+01
 -0.1277754E+01
 -0.1211228E+01
 -0.1157213E+01
 -0.1113353E+01
 -0.1077739E+01
 -0.1048819E+01
 -0.1025336E+01
 -0.1006266E+01
 -0.9907801E+00
 -0.9782047E+00
 -0.9679924E+00
 -0.9596994E+00
 -0.9529647E+00
 -0.9474956E+00
 -0.9430543E+00
 -0.9394475E+00
 -0.9365184E+00
 -0.9341397E+00
 -0.9322081E+00
 -0.9306393E+00
 -0.9293653E+00
 -0.9283308E+00
 -0.9274906E+00
 -0.9268083E+00
 -0.9262543E+00
 -0.9258043E+00
 -0.9254388E+00
 -0.9251420E+00
 -0.9249010E+00
 -0.9247053E+00
 -0.9245464E+00
 -0.9244173E+00
 -0.9243125E+00
 -0.9242274E+00
 -0.9241583E+00
 -0.9241021E+00
 -0.9240565E+00
 -0.9240195E+00
 -0.9239894E+00
 -0.9239649E+00
 -0.9239452E+00
 -0.9239291E+00
 -0.9239160E+00
 -0.9239054E+00
 -0.9238967E+00
 -0.9238898E+00
 -0.9238841E+00
 -0.9238794E+00
 -0.4619397E+02
 -0.3723049E+02
 -0.3011365E+02
 -0.2443794E+02
 -0.1989553E+02
 -0.1624986E+02
 -0.1331725E+02
 -0.1095394E+02
 -0.9046616E+01
 -0.7505470E+01
 -0.6259011E+01
 -0.5250110E+01
 -0.4432980E+01
 -0.3770833E+01
 -0.3234054E+01
 -0.2798761E+01
 -0.2445671E+01
 -0.2159198E+01
 -0.1926732E+01
 -0.1738064E+01
 -0.1584924E+01
 -0.1460611E+01
 -0.1359689E+01
 -0.1277754E+01
 -0.1211228E+01
 -0.1157213E+01
 -0.1113353E+01
 -0.1077739E+01
 -0.1048819E+01
 -0.1025336E+01
 -0.1006266E+01
 -0.9907800E+00
 -0.9782045E+00
 -0.9679923E+00
 -0.9596992E+00
 -0.9529645E+00
 -0.9474955E+00
 -0.9430541E+00
 -0.9394473E+00
 -0.9365182E+00
 -0.9341396E+00
 -0.9322078E+00
 -0.9306391E+00
 -0.9293652E+00
 -0.9283306E+00
 -0.9274904E+00
 -0.9268081E+00
 -0.9262540E+00
 -0.9258041E+00
 -0.9254386E+00
 -0.9251419E+00
 -0.9249009E+00
 -0.9247051E+00
 -0.9245462E+00
 -0.9244171E+00
 -0.9243123E+00
 -0.9242272E+00
 -0.9241580E+00
 -0.9241019E+00
 -0.9240564E+00
 -0.9240193E+00
 -0.9239892E+00
 -0.9239648E+00
 -0.9239450E+00
 -0.9239289E+00
 -0.9239158E+00
 -0.9239052E+00
 -0.9238966E+00
 -0.9238896E+00
 -0.9238839E+00
 -0.9238793E+00
 -0.4455032E+02
 -0.3590577E+02
 -0.2904216E+02
 -0.2356840E+02
 -0.1918761E+02
 -0.1567166E+02
 -0.1284340E+02
 -0.1056418E+02
 -0.8724723E+01
 -0.7238414E+01
 -0.6036306E+01
 -0.5063303E+01
 -0.4275248E+01
 -0.3636661E+01
 -0.3118982E+01
 -0.2699177E+01
 -0.2358651E+01
 -0.2082371E+01
 -0.1858176E+01
 -0.1676221E+01
 -0.1528530E+01
 -0.1408640E+01
 -0.1311310E+01
 -0.1232289E+01
 -0.1168131E+01
 -0.1116037E+01
 -0.1073738E+01
 -0.1039391E+01
 -0.1011501E+01
 -0.9888527E+00
 -0.9704614E+00
 -0.9555266E+00
 -0.9433987E+00
 -0.9335498E+00
 -0.9255518E+00
 -0.9190568E+00
 -0.9137822E+00
 -0.9094989E+00
 -0.9060205E+00
 -0.9031956E+00
 -0.9009016E+00
 -0.8990387E+00
 -0.8975257E+00
 -0.8962970E+00
 -0.8952994E+00
 -0.8944891E+00
 -0.8938310E+00
 -0.8932967E+00
 -0.8928627E+00
 -0.8925102E+00
 -0.8922240E+00
 -0.8919916E+00
 -0.8918028E+00
 -0.8916496E+00
 -0.8915251E+00
 -0.8914241E+00
 -0.8913419E+00
 -0.8912753E+00
 -0.8912211E+00
 -0.8911771E+00
 -0.8911415E+00
 -0.8911124E+00
 -0.8910888E+00
 -0.8910698E+00
 -0.8910543E+00
 -0.8910416E+00
 -0.8910313E+00
 -0.8910230E+00
 -0.8910163E+00
 -0.8910108E+00
 -0.8910064E+00
 -0.4455032E+02
 -0.3590577E+02
 -0.2904216E+02
 -0.2356840E+02
 -0.1918762E+02
 -0.1567166E+02
 -0.1284340E+02
 -0.1056418E+02
 -0.8724724E+01
 -0.7238414E+01
 -0.6036306E+01
 -0.5063303E+01
 -0.4275248E+01
 -0.3636661E+01
 -0.3118982E+01
 -0.2699177E+01
 -0.2358650E+01
 -0.2082371E+01
 -0.1858176E+01
 -0.1676221E+01
 -0.1528530E+01
 -0.1408640E+01
 -0.1311310E+01
 -0.1232289E+01
 -0.1168131E+01
 -0.1116037E+01
 -0.1073738E+01
 -0.1039391E+01
 -0.1011501E+01
 -0.9888526E+00
 -0.9704612E+00
 -0.9555265E+00
 -0.9433984E+00
 -0.9335496E+00
 -0.9255516E+00
 -0.9190565E+00
 -0.9137821E+00
 -0.9094987E+00
 -0.9060202E+00
 -0.9031954E+00
 -0.9009014E+00
 -0.8990384E+00
 -0.8975255E+00
 -0.8962969E+00
 -0.8952991E+00
 -0.8944889E+00
 -0.8938308E+00
 -0.8932964E+00
 -0.8928625E+00
 -0.8925101E+00
 -0.8922238E+00
 -0.8919914E+00
 -0.8918027E+00
 -0.8916494E+00
 -0.8915249E+00
 -0.8914238E+00
 -0.8913417E+00
 -0.8912750E+00
 -0.8912209E+00
 -0.8911769E+00
 -0.8911412E+00
 -0.8911122E+00
 -0.8910887E+00
 -0.8910695E+00
 -0.8910540E+00
 -0.8910414E+00
 -0.8910311E+00
 -0.8910229E+00
 -0.8910161E+00
 -0.8910106E+00
 -0.8910062E+00
 -0.4263200E+02
 -0.3435969E+02
 -0.2779162E+02
 -0.2255355E+02
 -0.1836141E+02
 -0.1499685E+02
 -0.1229037E+02
 -0.1010929E+02
 -0.8349041E+01
 -0.6926731E+01
 -0.5776385E+01
 -0.4845279E+01
 -0.4091157E+01
 -0.3480068E+01
 -0.2984680E+01
 -0.2582952E+01
 -0.2257088E+01
 -0.1992705E+01
 -0.1778164E+01
 -0.1604044E+01
 -0.1462713E+01
 -0.1347985E+01
 -0.1254845E+01
 -0.1179227E+01
 -0.1117832E+01
 -0.1067981E+01
 -0.1027503E+01
 -0.9946355E+00
 -0.9679460E+00
 -0.9462731E+00
 -0.9286737E+00
 -0.9143820E+00
 -0.9027763E+00
 -0.8933514E+00
 -0.8856979E+00
 -0.8794825E+00
 -0.8744351E+00
 -0.8703362E+00
 -0.8670076E+00
 -0.8643043E+00
 -0.8621091E+00
 -0.8603264E+00
 -0.8588786E+00
 -0.8577028E+00
 -0.8567481E+00
 -0.8559726E+00
 -0.8553430E+00
 -0.8548317E+00
 -0.8544164E+00
 -0.8540790E+00
 -0.8538052E+00
 -0.8535827E+00
 -0.8534021E+00
 -0.8532555E+00
 -0.8531364E+00
 -0.8530397E+00
 -0.8529611E+00
 -0.8528973E+00
 -0.8528454E+00
 -0.8528033E+00
 -0.8527693E+00
 -0.8527414E+00
 -0.8527188E+00
 -0.8527007E+00
 -0.8526858E+00
 -0.8526737E+00
 -0.8526639E+00
 -0.8526558E+00
 -0.8526495E+00
 -0.8526443E+00
 -0.8526399E+00
 -0.4263200E+02
 -0.3435969E+02
 -0.2779162E+02
 -0.2255355E+02
 -0.1836141E+02
 -0.1499685E+02
 -0.1229037E+02
 -0.1010929E+02
 -0.8349041E+01
 -0.6926731E+01
 -0.5776385E+01
 -0.4845279E+01
 -0.4091157E+01
 -0.3480068E+01
 -0.2984679E+01
 -0.2582952E+01
 -0.2257088E+01
 -0.1992705E+01
 -0.1778164E+01
 -0.1604044E+01
 -0.1462712E+01
 -0.1347985E+01
 -0.1254845E+01
 -0.1179227E+01
 -0.1117832E+01
 -0.1067981E+01
 -0.1027503E+01
 -0.9946354E+00
 -0.9679459E+00
 -0.9462730E+00
 -0.9286736E+00
 -0.9143819E+00
 -0.9027761E+00
 -0.8933514E+00
 -0.8856978E+00
 -0.8794824E+00
 -0.8744350E+00
 -0.8703361E+00
 -0.8670074E+00
 -0.8643042E+00
 -0.8621089E+00
 -0.8603262E+00
 -0.8588785E+00
 -0.8577027E+00
 -0.8567480E+00
 -0.8559726E+00
 -0.8553429E+00
 -0.8548315E+00
 -0.8544163E+00
 -0.8540790E+00
 -0.8538051E+00
 -0.8535827E+00
 -0.8534021E+00
 -0.8532554E+00
 -0.8531362E+00
 -0.8530395E+00
 -0.8529609E+00
 -0.8528972E+00
 -0.8528453E+00
 -0.8528033E+00
 -0.8527691E+00
 -0.8527414E+00
 -0.8527188E+00
 -0.8527005E+00
 -0.8526856E+00
 -0.8526736E+00
 -0.8526638E+00
 -0.8526558E+00
 -0.8526493E+00
 -0.8526441E+00
 -0.8526399E+00
 -0.4045084E+02
 -0.3260176E+02
 -0.2636973E+02
 -0.2139966E+02
 -0.1742199E+02
 -0.1422957E+02
 -0.1166156E+02
 -0.9592077E+01
 -0.7921883E+01
 -0.6572342E+01
 -0.5480851E+01
 -0.4597383E+01
 -0.3881843E+01
 -0.3302019E+01
 -0.2831976E+01
 -0.2450801E+01
 -0.2141610E+01
 -0.1890753E+01
 -0.1687188E+01
 -0.1521977E+01
 -0.1387876E+01
 -0.1279018E+01
 -0.1190644E+01
 -0.1118895E+01
 -0.1060641E+01
 -0.1013341E+01
 -0.9749339E+00
 -0.9437475E+00
 -0.9184235E+00
 -0.8978595E+00
 -0.8811605E+00
 -0.8676000E+00
 -0.8565880E+00
 -0.8476454E+00
 -0.8403834E+00
 -0.8344860E+00
 -0.8296968E+00
 -0.8258077E+00
 -0.8226493E+00
 -0.8200843E+00
 -0.8180015E+00
 -0.8163100E+00
 -0.8149362E+00
 -0.8138206E+00
 -0.8129148E+00
 -0.8121790E+00
 -0.8115815E+00
 -0.8110964E+00
 -0.8107023E+00
 -0.8103822E+00
 -0.8101224E+00
 -0.8099114E+00
 -0.8097400E+00
 -0.8096008E+00
 -0.8094878E+00
 -0.8093960E+00
 -0.8093215E+00
 -0.8092610E+00
 -0.8092118E+00
 -0.8091719E+00
 -0.8091396E+00
 -0.8091131E+00
 -0.8090916E+00
 -0.8090744E+00
 -0.8090603E+00
 -0.8090488E+00
 -0.8090395E+00
 -0.8090318E+00
 -0.8090259E+00
 -0.8090209E+00
 -0.8090168E+00
 -0.4045085E+02
 -0.3260176E+02
 -0.2636973E+02
 -0.2139966E+02
 -0.1742199E+02
 -0.1422957E+02
 -0.1166156E+02
 -0.9592078E+01
 -0.7921883E+01
 -0.6572342E+01
 -0.5480851E+01
 -0.4597383E+01
 -0.3881844E+01
 -0.3302019E+01
 -0.2831976E+01
 -0.2450801E+01
 -0.2141610E+01
 -0.1890753E+01
 -0.1687188E+01
 -0.1521977E+01
 -0.1387876E+01
 -0.1279018E+01
 -0.1190644E+01
 -0.1118895E+01
 -0.1060640E+01
 -0.1013340E+01
 -0.9749337E+00
 -0.9437473E+00
 -0.9184232E+00
 -0.8978592E+00
 -0.8811603E+00
 -0.8675998E+00
 -0.8565878E+00
 -0.8476452E+00
 -0.8403832E+00
 -0.8344858E+00
 -0.8296967E+00
 -0.8258075E+00
 -0.8226491E+00
 -0.8200842E+00
 -0.8180012E+00
 -0.8163097E+00
 -0.8149360E+00
 -0.8138204E+00
 -0.8129145E+00
 -0.8121788E+00
 -0.8115813E+00
 -0.8110961E+00
 -0.8107021E+00
 -0.8103821E+00
 -0.8101222E+00
 -0.8099112E+00
 -0.8097398E+00
 -0.8096006E+00
 -0.8094876E+00
 -0.8093958E+00
 -0.8093212E+00
 -0.8092607E+00
 -0.8092116E+00
 -0.8091716E+00
 -0.8091392E+00
 -0.8091129E+00
 -0.8090915E+00
 -0.8090741E+00
 -0.8090600E+00
 -0.8090486E+00
 -0.8090393E+00
 -0.8090317E+00
 -0.8090256E+00
 -0.8090206E+00
 -0.8090166E+00
 -0.3802029E+02
 -0.3064283E+02
 -0.2478526E+02
 -0.2011382E+02
 -0.1637516E+02
 -0.1337456E+02
 -0.1096086E+02
 -0.9015722E+01
 -0.7445884E+01
 -0.6177433E+01
 -0.5151525E+01
 -0.4321142E+01
 -0.3648597E+01
 -0.3103612E+01
 -0.2661812E+01
 -0.2303541E+01
 -0.2012928E+01
 -0.1777144E+01
 -0.1585811E+01
 -0.1430526E+01
 -0.1304484E+01
 -0.1202167E+01
 -0.1119102E+01
 -0.1051665E+01
 -0.9969105E+00
 -0.9524524E+00
 -0.9163535E+00
 -0.8870410E+00
 -0.8632385E+00
 -0.8439102E+00
 -0.8282146E+00
 -0.8154688E+00
 -0.8051186E+00
 -0.7967132E+00
 -0.7898876E+00
 -0.7843446E+00
 -0.7798432E+00
 -0.7761877E+00
 -0.7732191E+00
 -0.7708083E+00
 -0.7688506E+00
 -0.7672607E+00
 -0.7659695E+00
 -0.7649209E+00
 -0.7640695E+00
 -0.7633779E+00
 -0.7628164E+00
 -0.7623604E+00
 -0.7619900E+00
 -0.7616891E+00
 -0.7614449E+00
 -0.7612465E+00
 -0.7610855E+00
 -0.7609547E+00
 -0.7608485E+00
 -0.7607622E+00
 -0.7606921E+00
 -0.7606353E+00
 -0.7605890E+00
 -0.7605515E+00
 -0.7605211E+00
 -0.7604963E+00
 -0.7604761E+00
 -0.7604599E+00
 -0.7604466E+00
 -0.7604358E+00
 -0.7604271E+00
 -0.7604199E+00
 -0.7604142E+00
 -0.7604096E+00
 -0.7604057E+00
 -0.3802030E+02
 -0.3064283E+02
 -0.2478526E+02
 -0.2011383E+02
 -0.1637516E+02
 -0.1337457E+02
 -0.1096086E+02
 -0.9015723E+01
 -0.7445885E+01
 -0.6177433E+01
 -0.5151526E+01
 -0.4321142E+01
 -0.3648597E+01
 -0.3103612E+01
 -0.2661813E+01
 -0.2303541E+01
 -0.2012928E+01
 -0.1777144E+01
 -0.1585811E+01
 -0.1430526E+01
 -0.1304484E+01
 -0.1202167E+01
 -0.1119102E+01
 -0.1051665E+01
 -0.9969103E+00
 -0.9524524E+00
 -0.9163534E+00
 -0.8870409E+00
 -0.8632385E+00
 -0.8439101E+00
 -0.8282145E+00
 -0.8154688E+00
 -0.8051184E+00
 -0.7967132E+00
 -0.7898875E+00
 -0.7843446E+00
 -0.7798432E+00
 -0.7761877E+00
 -0.7732190E+00
 -0.7708082E+00
 -0.7688504E+00
 -0.7672606E+00
 -0.7659694E+00
 -0.7649209E+00
 -0.7640694E+00
 -0.7633778E+00
 -0.7628163E+00
 -0.7623603E+00
 -0.7619899E+00
 -0.7616891E+00
 -0.7614449E+00
 -0.7612465E+00
 -0.7610855E+00
 -0.7609546E+00
 -0.7608483E+00
 -0.7607621E+00
 -0.7606921E+00
 -0.7606351E+00
 -0.7605889E+00
 -0.7605514E+00
 -0.7605209E+00
 -0.7604962E+00
 -0.7604761E+00
 -0.7604598E+00
 -0.7604465E+00
 -0.7604358E+00
 -0.7604270E+00
 -0.7604199E+00
 -0.7604141E+00
 -0.7604095E+00
 -0.7604057E+00
 -0.3535534E+02
 -0.2849499E+02
 -0.2304799E+02
 -0.1870399E+02
 -0.1522738E+02
 -0.1243710E+02
 -0.1019258E+02
 -0.8383784E+01
 -0.6923981E+01
 -0.5744439E+01
 -0.4790440E+01
 -0.4018260E+01
 -0.3392856E+01
 -0.2886071E+01
 -0.2475238E+01
 -0.2142079E+01
 -0.1871836E+01
 -0.1652579E+01
 -0.1474657E+01
 -0.1330257E+01
 -0.1213049E+01
 -0.1117903E+01
 -0.1040661E+01
 -0.9779505E+00
 -0.9270342E+00
 -0.8856923E+00
 -0.8521237E+00
 -0.8248658E+00
 -0.8027318E+00
 -0.7847582E+00
 -0.7701627E+00
 -0.7583104E+00
 -0.7486856E+00
 -0.7408694E+00
 -0.7345222E+00
 -0.7293677E+00
 -0.7251818E+00
 -0.7217826E+00
 -0.7190220E+00
 -0.7167802E+00
 -0.7149597E+00
 -0.7134814E+00
 -0.7122806E+00
 -0.7113055E+00
 -0.7105138E+00
 -0.7098706E+00
 -0.7093484E+00
 -0.7089244E+00
 -0.7085800E+00
 -0.7083002E+00
 -0.7080731E+00
 -0.7078887E+00
 -0.7077389E+00
 -0.7076173E+00
 -0.7075185E+00
 -0.7074383E+00
 -0.7073731E+00
 -0.7073203E+00
 -0.7072772E+00
 -0.7072423E+00
 -0.7072141E+00
 -0.7071909E+00
 -0.7071722E+00
 -0.7071571E+00
 -0.7071448E+00
 -0.7071348E+00
 -0.7071266E+00
 -0.7071199E+00
 -0.7071148E+00
 -0.7071103E+00
 -0.7071068E+00
 -0.3535534E+02
 -0.2849499E+02
 -0.2304799E+02
 -0.1870399E+02
 -0.1522738E+02
 -0.1243710E+02
 -0.1019258E+02
 -0.8383784E+01
 -0.6923981E+01
 -0.5744439E+01
 -0.4790440E+01
 -0.4018260E+01
 -0.3392856E+01
 -0.2886071E+01
 -0.2475238E+01
 -0.2142079E+01
 -0.1871836E+01
 -0.1652579E+01
 -0.1474657E+01
 -0.1330257E+01
 -0.1213049E+01
 -0.1117903E+01
 -0.1040661E+01
 -0.9779505E+00
 -0.9270341E+00
 -0.8856924E+00
 -0.8521236E+00
 -0.8248658E+00
 -0.8027318E+00
 -0.7847581E+00
 -0.7701627E+00
 -0.7583104E+00
 -0.7486855E+00
 -0.7408694E+00
 -0.7345222E+00
 -0.7293677E+00
 -0.7251818E+00
 -0.7217825E+00
 -0.7190220E+00
 -0.7167802E+00
 -0.7149597E+00
 -0.7134812E+00
 -0.7122806E+00
 -0.7113055E+00
 -0.7105137E+00
 -0.7098706E+00
 -0.7093484E+00
 -0.7089244E+00
 -0.7085800E+00
 -0.7083003E+00
 -0.7080731E+00
 -0.7078887E+00
 -0.7077389E+00
 -0.7076172E+00
 -0.7075185E+00
 -0.7074382E+00
 -0.7073731E+00
 -0.7073202E+00
 -0.7072772E+00
 -0.7072423E+00
 -0.7072139E+00
 -0.7071909E+00
 -0.7071723E+00
 -0.7071571E+00
 -0.7071447E+00
 -0.7071347E+00
 -0.7071266E+00
 -0.7071200E+00
 -0.7071146E+00
 -0.7071103E+00
 -0.7071068E+00
 -0.3465464E+02
 -0.2793025E+02
 -0.2259121E+02
 -0.1833330E+02
 -0.1492560E+02
 -0.1219062E+02
 -0.9990582E+01
 -0.8217631E+01
 -0.6786759E+01
 -0.5630595E+01
 -0.4695503E+01
 -0.3938627E+01
 -0.3325618E+01
 -0.2828876E+01
 -0.2426186E+01
 -0.2099630E+01
 -0.1834742E+01
 -0.1619831E+01
 -0.1445435E+01
 -0.1303896E+01
 -0.1189011E+01
 -0.1095752E+01
 -0.1020041E+01
 -0.9585724E+00
 -0.9086652E+00
 -0.8681427E+00
 -0.8352394E+00
 -0.8085216E+00
 -0.7868263E+00
 -0.7692089E+00
 -0.7549027E+00
 -0.7432853E+00
 -0.7338513E+00
 -0.7261900E+00
 -0.7199686E+00
 -0.7149162E+00
 -0.7108133E+00
 -0.7074814E+00
 -0.7047756E+00
 -0.7025782E+00
 -0.7007938E+00
 -0.6993447E+00
 -0.6981677E+00
 -0.6972120E+00
 -0.6964359E+00
 -0.6958056E+00
 -0.6952937E+00
 -0.6948781E+00
 -0.6945405E+00
 -0.6942663E+00
 -0.6940437E+00
 -0.6938629E+00
 -0.6937160E+00
 -0.6935968E+00
 -0.6935000E+00
 -0.6934214E+00
 -0.6933575E+00
 -0.6933057E+00
 -0.6932635E+00
 -0.6932293E+00
 -0.6932017E+00
 -0.6931790E+00
 -0.6931606E+00
 -0.6931459E+00
 -0.6931338E+00
 -0.6931239E+00
 -0.6931160E+00
 -0.6931094E+00
 -0.6931043E+00
 -0.6931000E+00
 -0.6930965E+00
 -0.3465464E+02
 -0.2793053E+02
 -0.2259172E+02
 -0.1833400E+02
 -0.1492645E+02
 -0.1219159E+02
 -0.9991654E+01
 -0.8218781E+01
 -0.6787969E+01
 -0.5631851E+01
 -0.4696795E+01
 -0.3939947E+01
 -0.3326959E+01
 -0.2830235E+01
 -0.2427556E+01
 -0.2101010E+01
 -0.1836129E+01
 -0.1621223E+01
 -0.1446831E+01
 -0.1305295E+01
 -0.1190412E+01
 -0.1097154E+01
 -0.1021444E+01
 -0.9599766E+00
 -0.9100697E+00
 -0.8695476E+00
 -0.8366444E+00
 -0.8099267E+00
 -0.7882314E+00
 -0.7706140E+00
 -0.7563078E+00
 -0.7446903E+00
 -0.7352561E+00
 -0.7275949E+00
 -0.7213733E+00
 -0.7163209E+00
 -0.7122179E+00
 -0.7088860E+00
 -0.7061801E+00
 -0.7039827E+00
 -0.7021981E+00
 -0.7007490E+00
 -0.6995721E+00
 -0.6986163E+00
 -0.6978402E+00
 -0.6972098E+00
 -0.6966980E+00
 -0.6962823E+00
 -0.6959447E+00
 -0.6956705E+00
 -0.6954479E+00
 -0.6952671E+00
 -0.6951202E+00
 -0.6950010E+00
 -0.6949041E+00
 -0.6948255E+00
 -0.6947616E+00
 -0.6947098E+00
 -0.6946677E+00
 -0.6946335E+00
 -0.6946057E+00
 -0.6945831E+00
 -0.6945648E+00
 -0.6945499E+00
 -0.6945378E+00
 -0.6945280E+00
 -0.6945201E+00
 -0.6945136E+00
 -0.6945083E+00
 -0.6945041E+00
 -0.6945006E+00
 -0.3321341E+02
 -0.2676868E+02
 -0.2165168E+02
 -0.1757085E+02
 -0.1430487E+02
 -0.1168363E+02
 -0.9575095E+01
 -0.7875880E+01
 -0.6504516E+01
 -0.5396434E+01
 -0.4500232E+01
 -0.3774833E+01
 -0.3187318E+01